<?xml version="1.0"?>
<VTKFile type="PolyData">
	<PolyData>
		<Piece NumberOfPoints="1206" NumberOfPolys="1000">
			<Points>
				<DataArray type="Float32" NumberOfComponents="3" format="ascii">
 0 0 0 0.005 0 0 0.01 0 0 0.015 0 0 0.02 0 0 0.025 0 0 0.03 0 0 0.035 0 0 0.04 0 0 0.045 0 0 0.05 0 0 0.055 0 0 0.06 0 0 0.065 0 0 0.07 0 0 0.075 0 0 0.08 0 0 0.085 0 0 0.09 0 0 0.095 0 0 0.1 0 0 0.105 0 0 0.11 0 0 0.115 0 0 0.12 0 0 0.125 0 0 0.13 0 0 0.135 0 0 0.14 0 0 0.145 0 0 0.15 0 0 0.155 0 0 0.16 0 0 0.165 0 0 0.17 0 0 0.175 0 0 0.18 0 0 0.185 0 0 0.19 0 0 0.195 0 0 0.2 0 0 0.205 0 0 0.21 0 0 0.215 0 0 0.22 0 0 0.225 0 0 0.23 0 0 0.235 0 0 0.24 0 0 0.245 0 0 0.25 0 0 0.255 0 0 0.26 0 0 0.265 0 0 0.27 0 0 0.275 0 0 0.28 0 0 0.285 0 0 0.29 0 0 0.295 0 0 0.3 0 0 0.305 0 0 0.31 0 0 0.315 0 0 0.32 0 0 0.325 0 0 0.33 0 0 0.335 0 0 0.34 0 0 0.345 0 0 0.35 0 0 0.355 0 0 0.36 0 0 0.365 0 0 0.37 0 0 0.375 0 0 0.38 0 0 0.385 0 0 0.39 0 0 0.395 0 0 0.4 0 0 0.405 0 0 0.41 0 0 0.415 0 0 0.42 0 0 0.425 0 0 0.43 0 0 0.435 0 0 0.44 0 0 0.445 0 0 0.45 0 0 0.455 0 0 0.46 0 0 0.465 0 0 0.47 0 0 0.475 0 0 0.48 0 0 0.485 0 0 0.49 0 0 0.495 0 0 0.5 0 0 0.505 0 0 0.51 0 0 0.515 0 0 0.52 0 0 0.525 0 0 0.53 0 0 0.535 0 0 0.54 0 0 0.545 0 0 0.55 0 0 0.555 0 0 0.56 0 0 0.565 0 0 0.57 0 0 0.575 0 0 0.58 0 0 0.585 0 0 0.59 0 0 0.595 0 0 0.6 0 0 0.605 0 0 0.61 0 0 0.615 0 0 0.62 0 0 0.625 0 0 0.63 0 0 0.635 0 0 0.64 0 0 0.645 0 0 0.65 0 0 0.655 0 0 0.66 0 0 0.665 0 0 0.67 0 0 0.675 0 0 0.68 0 0 0.685 0 0 0.69 0 0 0.695 0 0 0.7 0 0 0.705 0 0 0.71 0 0 0.715 0 0 0.72 0 0 0.725 0 0 0.73 0 0 0.735 0 0 0.74 0 0 0.745 0 0 0.75 0 0 0.755 0 0 0.76 0 0 0.765 0 0 0.77 0 0 0.775 0 0 0.78 0 0 0.785 0 0 0.79 0 0 0.795 0 0 0.8 0 0 0.805 0 0 0.81 0 0 0.815 0 0 0.82 0 0 0.825 0 0 0.83 0 0 0.835 0 0 0.84 0 0 0.845 0 0 0.85 0 0 0.855 0 0 0.86 0 0 0.865 0 0 0.87 0 0 0.875 0 0 0.88 0 0 0.885 0 0 0.89 0 0 0.895 0 0 0.9 0 0 0.905 0 0 0.91 0 0 0.915 0 0 0.92 0 0 0.925 0 0 0.93 0 0 0.935 0 0 0.94 0 0 0.945 0 0 0.95 0 0 0.955 0 0 0.96 0 0 0.965 0 0 0.97 0 0 0.975 0 0 0.98 0 0 0.985 0 0 0.99 0 0 0.995 0 0 1 0 0 0 0.02 0 0.005 0.02 0 0.01 0.02 0 0.015 0.02 0 0.02 0.02 0 0.025 0.02 0 0.03 0.02 0 0.035 0.02 0 0.04 0.02 0 0.045 0.02 0 0.05 0.02 0 0.055 0.02 0 0.06 0.02 0 0.065 0.02 0 0.07 0.02 0 0.075 0.02 0 0.08 0.02 0 0.085 0.02 0 0.09 0.02 0 0.095 0.02 0 0.1 0.02 0 0.105 0.02 0 0.11 0.02 0 0.115 0.02 0 0.12 0.02 0 0.125 0.02 0 0.13 0.02 0 0.135 0.02 0 0.14 0.02 0 0.145 0.02 0 0.15 0.02 0 0.155 0.02 0 0.16 0.02 0 0.165 0.02 0 0.17 0.02 0 0.175 0.02 0 0.18 0.02 0 0.185 0.02 0 0.19 0.02 0 0.195 0.02 0 0.2 0.02 0 0.205 0.02 0 0.21 0.02 0 0.215 0.02 0 0.22 0.02 0 0.225 0.02 0 0.23 0.02 0 0.235 0.02 0 0.24 0.02 0 0.245 0.02 0 0.25 0.02 0 0.255 0.02 0 0.26 0.02 0 0.265 0.02 0 0.27 0.02 0 0.275 0.02 0 0.28 0.02 0 0.285 0.02 0 0.29 0.02 0 0.295 0.02 0 0.3 0.02 0 0.305 0.02 0 0.31 0.02 0 0.315 0.02 0 0.32 0.02 0 0.325 0.02 0 0.33 0.02 0 0.335 0.02 0 0.34 0.02 0 0.345 0.02 0 0.35 0.02 0 0.355 0.02 0 0.36 0.02 0 0.365 0.02 0 0.37 0.02 0 0.375 0.02 0 0.38 0.02 0 0.385 0.02 0 0.39 0.02 0 0.395 0.02 0 0.4 0.02 0 0.405 0.02 0 0.41 0.02 0 0.415 0.02 0 0.42 0.02 0 0.425 0.02 0 0.43 0.02 0 0.435 0.02 0 0.44 0.02 0 0.445 0.02 0 0.45 0.02 0 0.455 0.02 0 0.46 0.02 0 0.465 0.02 0 0.47 0.02 0 0.475 0.02 0 0.48 0.02 0 0.485 0.02 0 0.49 0.02 0 0.495 0.02 0 0.5 0.02 0 0.505 0.02 0 0.51 0.02 0 0.515 0.02 0 0.52 0.02 0 0.525 0.02 0 0.53 0.02 0 0.535 0.02 0 0.54 0.02 0 0.545 0.02 0 0.55 0.02 0 0.555 0.02 0 0.56 0.02 0 0.565 0.02 0 0.57 0.02 0 0.575 0.02 0 0.58 0.02 0 0.585 0.02 0 0.59 0.02 0 0.595 0.02 0 0.6 0.02 0 0.605 0.02 0 0.61 0.02 0 0.615 0.02 0 0.62 0.02 0 0.625 0.02 0 0.63 0.02 0 0.635 0.02 0 0.64 0.02 0 0.645 0.02 0 0.65 0.02 0 0.655 0.02 0 0.66 0.02 0 0.665 0.02 0 0.67 0.02 0 0.675 0.02 0 0.68 0.02 0 0.685 0.02 0 0.69 0.02 0 0.695 0.02 0 0.7 0.02 0 0.705 0.02 0 0.71 0.02 0 0.715 0.02 0 0.72 0.02 0 0.725 0.02 0 0.73 0.02 0 0.735 0.02 0 0.74 0.02 0 0.745 0.02 0 0.75 0.02 0 0.755 0.02 0 0.76 0.02 0 0.765 0.02 0 0.77 0.02 0 0.775 0.02 0 0.78 0.02 0 0.785 0.02 0 0.79 0.02 0 0.795 0.02 0 0.8 0.02 0 0.805 0.02 0 0.81 0.02 0 0.815 0.02 0 0.82 0.02 0 0.825 0.02 0 0.83 0.02 0 0.835 0.02 0 0.84 0.02 0 0.845 0.02 0 0.85 0.02 0 0.855 0.02 0 0.86 0.02 0 0.865 0.02 0 0.87 0.02 0 0.875 0.02 0 0.88 0.02 0 0.885 0.02 0 0.89 0.02 0 0.895 0.02 0 0.9 0.02 0 0.905 0.02 0 0.91 0.02 0 0.915 0.02 0 0.92 0.02 0 0.925 0.02 0 0.93 0.02 0 0.935 0.02 0 0.94 0.02 0 0.945 0.02 0 0.95 0.02 0 0.955 0.02 0 0.96 0.02 0 0.965 0.02 0 0.97 0.02 0 0.975 0.02 0 0.98 0.02 0 0.985 0.02 0 0.99 0.02 0 0.995 0.02 0 1 0.02 0 0 0.04 0 0.005 0.04 0 0.01 0.04 0 0.015 0.04 0 0.02 0.04 0 0.025 0.04 0 0.03 0.04 0 0.035 0.04 0 0.04 0.04 0 0.045 0.04 0 0.05 0.04 0 0.055 0.04 0 0.06 0.04 0 0.065 0.04 0 0.07 0.04 0 0.075 0.04 0 0.08 0.04 0 0.085 0.04 0 0.09 0.04 0 0.095 0.04 0 0.1 0.04 0 0.105 0.04 0 0.11 0.04 0 0.115 0.04 0 0.12 0.04 0 0.125 0.04 0 0.13 0.04 0 0.135 0.04 0 0.14 0.04 0 0.145 0.04 0 0.15 0.04 0 0.155 0.04 0 0.16 0.04 0 0.165 0.04 0 0.17 0.04 0 0.175 0.04 0 0.18 0.04 0 0.185 0.04 0 0.19 0.04 0 0.195 0.04 0 0.2 0.04 0 0.205 0.04 0 0.21 0.04 0 0.215 0.04 0 0.22 0.04 0 0.225 0.04 0 0.23 0.04 0 0.235 0.04 0 0.24 0.04 0 0.245 0.04 0 0.25 0.04 0 0.255 0.04 0 0.26 0.04 0 0.265 0.04 0 0.27 0.04 0 0.275 0.04 0 0.28 0.04 0 0.285 0.04 0 0.29 0.04 0 0.295 0.04 0 0.3 0.04 0 0.305 0.04 0 0.31 0.04 0 0.315 0.04 0 0.32 0.04 0 0.325 0.04 0 0.33 0.04 0 0.335 0.04 0 0.34 0.04 0 0.345 0.04 0 0.35 0.04 0 0.355 0.04 0 0.36 0.04 0 0.365 0.04 0 0.37 0.04 0 0.375 0.04 0 0.38 0.04 0 0.385 0.04 0 0.39 0.04 0 0.395 0.04 0 0.4 0.04 0 0.405 0.04 0 0.41 0.04 0 0.415 0.04 0 0.42 0.04 0 0.425 0.04 0 0.43 0.04 0 0.435 0.04 0 0.44 0.04 0 0.445 0.04 0 0.45 0.04 0 0.455 0.04 0 0.46 0.04 0 0.465 0.04 0 0.47 0.04 0 0.475 0.04 0 0.48 0.04 0 0.485 0.04 0 0.49 0.04 0 0.495 0.04 0 0.5 0.04 0 0.505 0.04 0 0.51 0.04 0 0.515 0.04 0 0.52 0.04 0 0.525 0.04 0 0.53 0.04 0 0.535 0.04 0 0.54 0.04 0 0.545 0.04 0 0.55 0.04 0 0.555 0.04 0 0.56 0.04 0 0.565 0.04 0 0.57 0.04 0 0.575 0.04 0 0.58 0.04 0 0.585 0.04 0 0.59 0.04 0 0.595 0.04 0 0.6 0.04 0 0.605 0.04 0 0.61 0.04 0 0.615 0.04 0 0.62 0.04 0 0.625 0.04 0 0.63 0.04 0 0.635 0.04 0 0.64 0.04 0 0.645 0.04 0 0.65 0.04 0 0.655 0.04 0 0.66 0.04 0 0.665 0.04 0 0.67 0.04 0 0.675 0.04 0 0.68 0.04 0 0.685 0.04 0 0.69 0.04 0 0.695 0.04 0 0.7 0.04 0 0.705 0.04 0 0.71 0.04 0 0.715 0.04 0 0.72 0.04 0 0.725 0.04 0 0.73 0.04 0 0.735 0.04 0 0.74 0.04 0 0.745 0.04 0 0.75 0.04 0 0.755 0.04 0 0.76 0.04 0 0.765 0.04 0 0.77 0.04 0 0.775 0.04 0 0.78 0.04 0 0.785 0.04 0 0.79 0.04 0 0.795 0.04 0 0.8 0.04 0 0.805 0.04 0 0.81 0.04 0 0.815 0.04 0 0.82 0.04 0 0.825 0.04 0 0.83 0.04 0 0.835 0.04 0 0.84 0.04 0 0.845 0.04 0 0.85 0.04 0 0.855 0.04 0 0.86 0.04 0 0.865 0.04 0 0.87 0.04 0 0.875 0.04 0 0.88 0.04 0 0.885 0.04 0 0.89 0.04 0 0.895 0.04 0 0.9 0.04 0 0.905 0.04 0 0.91 0.04 0 0.915 0.04 0 0.92 0.04 0 0.925 0.04 0 0.93 0.04 0 0.935 0.04 0 0.94 0.04 0 0.945 0.04 0 0.95 0.04 0 0.955 0.04 0 0.96 0.04 0 0.965 0.04 0 0.97 0.04 0 0.975 0.04 0 0.98 0.04 0 0.985 0.04 0 0.99 0.04 0 0.995 0.04 0 1 0.04 0 0 0.06 0 0.005 0.06 0 0.01 0.06 0 0.015 0.06 0 0.02 0.06 0 0.025 0.06 0 0.03 0.06 0 0.035 0.06 0 0.04 0.06 0 0.045 0.06 0 0.05 0.06 0 0.055 0.06 0 0.06 0.06 0 0.065 0.06 0 0.07 0.06 0 0.075 0.06 0 0.08 0.06 0 0.085 0.06 0 0.09 0.06 0 0.095 0.06 0 0.1 0.06 0 0.105 0.06 0 0.11 0.06 0 0.115 0.06 0 0.12 0.06 0 0.125 0.06 0 0.13 0.06 0 0.135 0.06 0 0.14 0.06 0 0.145 0.06 0 0.15 0.06 0 0.155 0.06 0 0.16 0.06 0 0.165 0.06 0 0.17 0.06 0 0.175 0.06 0 0.18 0.06 0 0.185 0.06 0 0.19 0.06 0 0.195 0.06 0 0.2 0.06 0 0.205 0.06 0 0.21 0.06 0 0.215 0.06 0 0.22 0.06 0 0.225 0.06 0 0.23 0.06 0 0.235 0.06 0 0.24 0.06 0 0.245 0.06 0 0.25 0.06 0 0.255 0.06 0 0.26 0.06 0 0.265 0.06 0 0.27 0.06 0 0.275 0.06 0 0.28 0.06 0 0.285 0.06 0 0.29 0.06 0 0.295 0.06 0 0.3 0.06 0 0.305 0.06 0 0.31 0.06 0 0.315 0.06 0 0.32 0.06 0 0.325 0.06 0 0.33 0.06 0 0.335 0.06 0 0.34 0.06 0 0.345 0.06 0 0.35 0.06 0 0.355 0.06 0 0.36 0.06 0 0.365 0.06 0 0.37 0.06 0 0.375 0.06 0 0.38 0.06 0 0.385 0.06 0 0.39 0.06 0 0.395 0.06 0 0.4 0.06 0 0.405 0.06 0 0.41 0.06 0 0.415 0.06 0 0.42 0.06 0 0.425 0.06 0 0.43 0.06 0 0.435 0.06 0 0.44 0.06 0 0.445 0.06 0 0.45 0.06 0 0.455 0.06 0 0.46 0.06 0 0.465 0.06 0 0.47 0.06 0 0.475 0.06 0 0.48 0.06 0 0.485 0.06 0 0.49 0.06 0 0.495 0.06 0 0.5 0.06 0 0.505 0.06 0 0.51 0.06 0 0.515 0.06 0 0.52 0.06 0 0.525 0.06 0 0.53 0.06 0 0.535 0.06 0 0.54 0.06 0 0.545 0.06 0 0.55 0.06 0 0.555 0.06 0 0.56 0.06 0 0.565 0.06 0 0.57 0.06 0 0.575 0.06 0 0.58 0.06 0 0.585 0.06 0 0.59 0.06 0 0.595 0.06 0 0.6 0.06 0 0.605 0.06 0 0.61 0.06 0 0.615 0.06 0 0.62 0.06 0 0.625 0.06 0 0.63 0.06 0 0.635 0.06 0 0.64 0.06 0 0.645 0.06 0 0.65 0.06 0 0.655 0.06 0 0.66 0.06 0 0.665 0.06 0 0.67 0.06 0 0.675 0.06 0 0.68 0.06 0 0.685 0.06 0 0.69 0.06 0 0.695 0.06 0 0.7 0.06 0 0.705 0.06 0 0.71 0.06 0 0.715 0.06 0 0.72 0.06 0 0.725 0.06 0 0.73 0.06 0 0.735 0.06 0 0.74 0.06 0 0.745 0.06 0 0.75 0.06 0 0.755 0.06 0 0.76 0.06 0 0.765 0.06 0 0.77 0.06 0 0.775 0.06 0 0.78 0.06 0 0.785 0.06 0 0.79 0.06 0 0.795 0.06 0 0.8 0.06 0 0.805 0.06 0 0.81 0.06 0 0.815 0.06 0 0.82 0.06 0 0.825 0.06 0 0.83 0.06 0 0.835 0.06 0 0.84 0.06 0 0.845 0.06 0 0.85 0.06 0 0.855 0.06 0 0.86 0.06 0 0.865 0.06 0 0.87 0.06 0 0.875 0.06 0 0.88 0.06 0 0.885 0.06 0 0.89 0.06 0 0.895 0.06 0 0.9 0.06 0 0.905 0.06 0 0.91 0.06 0 0.915 0.06 0 0.92 0.06 0 0.925 0.06 0 0.93 0.06 0 0.935 0.06 0 0.94 0.06 0 0.945 0.06 0 0.95 0.06 0 0.955 0.06 0 0.96 0.06 0 0.965 0.06 0 0.97 0.06 0 0.975 0.06 0 0.98 0.06 0 0.985 0.06 0 0.99 0.06 0 0.995 0.06 0 1 0.06 0 0 0.08 0 0.005 0.08 0 0.01 0.08 0 0.015 0.08 0 0.02 0.08 0 0.025 0.08 0 0.03 0.08 0 0.035 0.08 0 0.04 0.08 0 0.045 0.08 0 0.05 0.08 0 0.055 0.08 0 0.06 0.08 0 0.065 0.08 0 0.07 0.08 0 0.075 0.08 0 0.08 0.08 0 0.085 0.08 0 0.09 0.08 0 0.095 0.08 0 0.1 0.08 0 0.105 0.08 0 0.11 0.08 0 0.115 0.08 0 0.12 0.08 0 0.125 0.08 0 0.13 0.08 0 0.135 0.08 0 0.14 0.08 0 0.145 0.08 0 0.15 0.08 0 0.155 0.08 0 0.16 0.08 0 0.165 0.08 0
[...]
			<CellData Scalars="Density">
				<DataArray Name="Density" type="Float32" format="ascii">
 1 1 1 1 1 1 1 1 1 1 1 1 1 1 1 1 1 1 1 1 1 1 1 1 1 1 1 1 1 1 1 1 1 1 1 1 1 1 0.999999 0.999997 0.999992 0.999978 0.999941 0.999842 0.999619 0.999182 0.998409 0.997146 0.995205 0.9924 0.988544 0.983537 0.977376 0.970112 0.96182 0.952554 0.942392 0.931425 0.919763 0.907516 0.894793 0.881693 0.868304 0.854701 0.840945 0.827061 0.812986 0.798685 0.784409 0.770338 0.756609 0.743284 0.730331 0.717718 0.705363 0.693 0.680714 0.668684 0.656771 0.644895 0.633123 0.621471 0.609966 0.59864 0.587503 0.576611 0.565999 0.555651 0.545569 0.535765 0.526267 0.517094 0.50827 0.499795 0.49166 0.483898 0.476531 0.469578 0.46304 0.456948 0.451345 0.446242 0.441659 0.437689 0.434435 0.431836 0.429789 0.428123 0.426728 0.425576 0.424654 0.423929 0.423365 0.422931 0.42259 0.422307 0.422065 0.421843 0.42161 0.421328 0.420954 0.420429 0.419689 0.418666 0.417321 0.415632 0.413575 0.411251 0.408863 0.406356 0.404051 0.402024 0.401161 0.381121 0.312577 0.265035 0.26368 0.264042 0.264544 0.265155 0.265732 0.266244 0.266669 0.267004 0.267254 0.267433 0.267558 0.267642 0.267697 0.267733 0.267757 0.267783 0.267815 0.267849 0.267862 0.267879 0.267928 0.267957 0.267874 0.267294 0.2656 0.261012 0.250552 0.229287 0.199927 0.1599 0.132537 0.126264 0.125203 0.125032 0.125005 0.125001 0.125 0.125 0.125 0.125 0.125 0.125 0.125 0.125 0.125 0.125 0.125 0.125 0.125 0.125 0.125 0.125 0.125 0.125 0.125 0.125 0.125 0.125 0.125 0.125 0.125 0.125 0.125 0.125 1 1 1 1 1 1 1 1 1 1 1 1 1 1 1 1 1 1 1 1 1 1 1 1 1 1 1 1 1 1 1 1 1 1 1 1 1 1 0.999999 0.999997 0.999992 0.999978 0.99994 0.999837 0.999591 0.999099 0.998226 0.996817 0.994701 0.991735 0.987753 0.9826 0.976257 0.968781 0.960277 0.950849 0.940599 0.929613 0.918005 0.905873 0.893312 0.880407 0.867232 0.853851 0.840315 0.826656 0.812855 0.79894 0.78514 0.771601 0.758309 0.745194 0.732146 0.719159 0.70619 0.693047 0.68005 0.667459 0.655281 0.6435 0.631987 0.620651 0.609474 0.598433 0.587506 0.576743 0.566199 0.555893 0.545846 0.536081 0.526574 0.517305 0.508363 0.499794 0.491579 0.483741 0.476322 0.469381 0.462893 0.45687 0.45136 0.446528 0.442479 0.438994 0.435887 0.433188 0.430895 0.428998 0.427458 0.426171 0.425108 0.42426 0.42359 0.423054 0.422653 0.422356 0.422113 0.421887 0.421651 0.421356 0.420957 0.420398 0.41963 0.41859 0.41723 0.41547 0.413432 0.411203 0.40837 0.406132 0.404237 0.40279 0.401462 0.38183 0.313158 0.265173 0.263698 0.264049 0.264538 0.265139 0.265712 0.266223 0.266649 0.266986 0.267241 0.267426 0.267554 0.267638 0.267691 0.267721 0.267737 0.267752 0.26777 0.267783 0.267752 0.267647 0.267447 0.267087 0.266457 0.265353 0.26363 0.259925 0.252914 0.235537 0.206595 0.163273 0.132878 0.126336 0.125213 0.125033 0.125005 0.125001 0.125 0.125 0.125 0.125 0.125 0.125 0.125 0.125 0.125 0.125 0.125 0.125 0.125 0.125 0.125 0.125 0.125 0.125 0.125 0.125 0.125 0.125 0.125 0.125 0.125 0.125 0.125 0.125 1 1 1 1 1 1 1 1 1 1 1 1 1 1 1 1 1 1 1 1 1 1 1 1 1 1 1 1 1 1 1 1 1 1 1 1 1 1 0.999999 0.999997 0.999992 0.999978 0.999941 0.999844 0.999622 0.999191 0.998437 0.99721 0.99527 0.992374 0.988462 0.983454 0.977325 0.970099 0.961838 0.952604 0.942474 0.931536 0.919909 0.907695 0.895003 0.881932 0.868569 0.854993 0.841266 0.827422 0.81347 0.799509 0.785689 0.772051 0.758554 0.745185 0.73196 0.718912 0.705863 0.692392 0.678717 0.665256 0.652158 0.639584 0.627571 0.616032 0.604951 0.594239 0.583824 0.573672 0.563754 0.554071 0.54464 0.535477 0.526525 0.51769 0.509059 0.500725 0.492708 0.485048 0.477788 0.470986 0.464624 0.458743 0.453382 0.448617 0.444376 0.440461 0.436896 0.433726 0.430822 0.428421 0.426691 0.425455 0.424544 0.423884 0.423409 0.423036 0.422743 0.422486 0.422223 0.42195 0.421672 0.421349 0.42093 0.420364 0.419599 0.418555 0.417199 0.415518 0.413334 0.410369 0.408037 0.406213 0.404404 0.40312 0.401711 0.382222 0.31347 0.265233 0.263692 0.264034 0.264524 0.26513 0.265701 0.266208 0.266629 0.26696 0.267207 0.267383 0.267504 0.267583 0.267631 0.267656 0.267663 0.267657 0.267622 0.267561 0.267454 0.267353 0.267316 0.267364 0.267336 0.266672 0.264857 0.258878 0.248466 0.228927 0.2018 0.162545 0.133329 0.126418 0.125219 0.125033 0.125005 0.125001 0.125 0.125 0.125 0.125 0.125 0.125 0.125 0.125 0.125 0.125 0.125 0.125 0.125 0.125 0.125 0.125 0.125 0.125 0.125 0.125 0.125 0.125 0.125 0.125 0.125 0.125 0.125 0.125 1 1 1 1 1 1 1 1 1 1 1 1 1 1 1 1 1 1 1 1 1 1 1 1 1 1 1 1 1 1 1 1 1 1 1 1 1 1 0.999999 0.999997 0.999992 0.999979 0.999942 0.99985 0.999649 0.999264 0.998571 0.997361 0.995304 0.992134 0.987876 0.982527 0.976084 0.96858 0.960087 0.950683 0.940451 0.929466 0.917836 0.905664 0.893053 0.880102 0.866897 0.853517 0.840026 0.826453 0.812783 0.799027 0.785222 0.771469 0.757793 0.744266 0.730959 0.717978 0.70533 0.692762 0.680295 0.668036 0.655973 0.644124 0.63249 0.621011 0.60972 0.598594 0.587633 0.576864 0.56631 0.555996 0.545949 0.536189 0.526734 0.517561 0.5087 0.500186 0.492028 0.484234 0.47684 0.469894 0.463422 0.457445 0.451972 0.44702 0.442683 0.438949 0.435737 0.433059 0.430833 0.428953 0.427392 0.426109 0.42507 0.424241 0.423582 0.423052 0.42265 0.42236 0.422131 0.421908 0.42166 0.421351 0.420941 0.420378 0.419615 0.418586 0.417238 0.415475 0.413429 0.411209 0.40837 0.406129 0.404234 0.402776 0.401483 0.381877 0.313192 0.265152 0.263671 0.264002 0.264534 0.265131 0.265705 0.266214 0.266639 0.266975 0.267227 0.267407 0.267528 0.267607 0.267657 0.26769 0.267718 0.267747 0.26778 0.267825 0.267827 0.267677 0.267367 0.26686 0.265996 0.264677 0.262812 0.258928 0.251617 0.235201 0.208658 0.166909 0.134087 0.126454 0.12522 0.125033 0.125005 0.125001 0.125 0.125 0.125 0.125 0.125 0.125 0.125 0.125 0.125 0.125 0.125 0.125 0.125 0.125 0.125 0.125 0.125 0.125 0.125 0.125 0.125 0.125 0.125 0.125 0.125 0.125 0.125 0.125 1 1 1 1 1 1 1 1 1 1 1 1 1 1 1 1 1 1 1 1 1 1 1 1 1 1 1 1 1 1 1 1 1 1 1 1 1 1 0.999999 0.999997 0.999992 0.999979 0.999944 0.999859 0.999678 0.999317 0.998629 0.997382 0.995314 0.992318 0.988367 0.983373 0.977277 0.970073 0.961813 0.952552 0.942381 0.931399 0.919719 0.907453 0.894711 0.881595 0.868198 0.854603 0.840882 0.827062 0.813029 0.798949 0.784988 0.771262 0.757695 0.744247 0.730888 0.717671 0.704711 0.692117 0.679891 0.667873 0.655966 0.644114 0.632363 0.620743 0.609301 0.598062 0.587043 0.576259 0.565716 0.555419 0.545373 0.535587 0.526087 0.516897 0.50799 0.499399 0.491191 0.483366 0.475946 0.468972 0.462486 0.456523 0.451105 0.446225 0.441879 0.438083 0.434835 0.432143 0.429989 0.42824 0.426787 0.425586 0.424626 0.423882 0.423314 0.422887 0.42255 0.422264 0.422017 0.421789 0.42155 0.421262 0.420881 0.420359 0.419637 0.418644 0.417325 0.415622 0.41351 0.411129 0.408721 0.406313 0.404129 0.402346 0.401129 0.381241 0.312653 0.264983 0.2636 0.263971 0.264544 0.265148 0.265721 0.266228 0.266647 0.266974 0.267215 0.267384 0.267496 0.267566 0.267607 0.267625 0.267625 0.267609 0.267569 0.267543 0.267545 0.267576 0.26768 0.267771 0.267701 0.267225 0.265621 0.26138 0.250867 0.228942 0.198358 0.160444 0.133475 0.126425 0.125219 0.125033 0.125005 0.125001 0.125 0.125 0.125 0.125 0.125 0.125 0.125 0.125 0.125 0.125 0.125 0.125 0.125 0.125 0.125 0.125 0.125 0.125 0.125 0.125 0.125 0.125 0.125 0.125 0.125 0.125 0.125 0.125
				</DataArray>
				<DataArray Name="Energy" type="Float32" format="ascii">
 2.5 2.5 2.5 2.5 2.5 2.5 2.5 2.5 2.5 2.5 2.5 2.5 2.5 2.5 2.5 2.5 2.5 2.5 2.5 2.5 2.5 2.5 2.5 2.5 2.5 2.5 2.5 2.5 2.5 2.5 2.5 2.5 2.5 2.5 2.5 2.5 2.5 2.5 2.5 2.5 2.49999 2.49998 2.49994 2.49984 2.49962 2.49918 2.49841 2.49714 2.4952 2.49238 2.4885 2.48345 2.47722 2.46984 2.46137 2.45186 2.44137 2.42998 2.41777 2.40486 2.39133 2.37729 2.36281 2.34797 2.33281 2.31736 2.30154 2.28529 2.26892 2.25264 2.2366 2.22088 2.20544 2.19024 2.17516 2.15988 2.14455 2.12938 2.11418 2.09888 2.08356 2.06825 2.05298 2.03779 2.02271 2.0078 1.99314 1.97868 1.96446 1.9505 1.93686 1.92357 1.91068 1.8982 1.88613 1.87454 1.86348 1.85299 1.84309 1.83384 1.82534 1.81764 1.81086 1.80517 1.8006 1.79696 1.79411 1.79185 1.7901 1.78883 1.78796 1.78743 1.78718 1.78716 1.78732 1.78763 1.7881 1.78875 1.78961 1.79079 1.79243 1.79473 1.79794 1.80234 1.8082 1.81564 1.82464 1.83497 1.84618 1.85744 1.86766 1.87603 1.881 1.9801 2.41461 2.84795 2.86241 2.85837 2.85251 2.8461 2.83989 2.83435 2.82967 2.82591 2.82303 2.82092 2.81943 2.81841 2.81775 2.81734 2.8171 2.81701 2.81704 2.81716 2.81727 2.81744 2.81777 2.81812 2.81826 2.81704 2.81216 2.79791 2.76149 2.67525 2.52572 2.26861 2.05657 2.00845 2.00131 2.0002 2.00003 2 2 2 2 2 2 2 2 2 2 2 2 2 2 2 2 2 2 2 2 2 2 2 2 2 2 2 2 2 2.5 2.5 2.5 2.5 2.5 2.5 2.5 2.5 2.5 2.5 2.5 2.5 2.5 2.5 2.5 2.5 2.5 2.5 2.5 2.5 2.5 2.5 2.5 2.5 2.5 2.5 2.5 2.5 2.5 2.5 2.5 2.5 2.5 2.5 2.5 2.5 2.5 2.5 2.5 2.5 2.49999 2.49998 2.49994 2.49984 2.49959 2.4991 2.49822 2.49681 2.49469 2.49171 2.4877 2.48249 2.47606 2.46845 2.45974 2.45004 2.43943 2.42797 2.41579 2.40296 2.38957 2.3757 2.36141 2.34678 2.33184 2.31662 2.30109 2.28529 2.26948 2.25383 2.23831 2.22282 2.20724 2.19157 2.17574 2.15952 2.14336 2.12758 2.11217 2.09709 2.08218 2.06733 2.05251 2.03771 2.0229 2.00819 1.99364 1.97928 1.96516 1.95129 1.93766 1.92424 1.91119 1.89859 1.88641 1.87471 1.86359 1.85315 1.84335 1.83427 1.82605 1.81895 1.81299 1.80781 1.80325 1.7994 1.79626 1.79376 1.79179 1.79024 1.78909 1.7883 1.78782 1.78759 1.78764 1.78792 1.78837 1.789 1.78986 1.79103 1.79266 1.79498 1.79826 1.80276 1.80872 1.8162 1.82531 1.83606 1.84729 1.85769 1.8669 1.87438 1.87936 1.97648 2.41019 2.84644 2.86216 2.85827 2.85254 2.84616 2.83994 2.83435 2.82962 2.82582 2.82289 2.82072 2.81918 2.81811 2.81738 2.81689 2.81656 2.81635 2.81625 2.81621 2.81607 2.81573 2.81507 2.81387 2.81174 2.80793 2.80194 2.78916 2.76433 2.69633 2.55746 2.29275 2.05977 2.00895 2.00137 2.00021 2.00003 2 2 2 2 2 2 2 2 2 2 2 2 2 2 2 2 2 2 2 2 2 2 2 2 2 2 2 2 2 2.5 2.5 2.5 2.5 2.5 2.5 2.5 2.5 2.5 2.5 2.5 2.5 2.5 2.5 2.5 2.5 2.5 2.5 2.5 2.5 2.5 2.5 2.5 2.5 2.5 2.5 2.5 2.5 2.5 2.5 2.5 2.5 2.5 2.5 2.5 2.5 2.5 2.5 2.5 2.5 2.49999 2.49998 2.49994 2.49984 2.49962 2.49919 2.49844 2.49721 2.49526 2.49236 2.48842 2.48337 2.47717 2.46983 2.4614 2.45193 2.44148 2.43012 2.41797 2.40511 2.39163 2.37764 2.36321 2.34842 2.33333 2.31795 2.3023 2.28649 2.2707 2.25495 2.23919 2.22342 2.20765 2.19192 2.17596 2.15927 2.14216 2.12518 2.10851 2.09235 2.07673 2.06156 2.04682 2.03241 2.01826 2.00432 1.99058 1.97704 1.96373 1.95069 1.93783 1.92501 1.91239 1.90013 1.88826 1.87687 1.86602 1.85582 1.84626 1.83742 1.82938 1.82222 1.81576 1.80979 1.80439 1.79975 1.79584 1.79289 1.79082 1.78938 1.78842 1.78789 1.78768 1.78765 1.78781 1.78808 1.78846 1.78902 1.78984 1.791 1.79265 1.795 1.79831 1.80283 1.8088 1.81643 1.82605 1.83741 1.84835 1.85797 1.86654 1.87352 1.87859 1.97458 2.40774 2.84562 2.86216 2.85826 2.8526 2.84629 2.84012 2.83458 2.82991 2.82616 2.82327 2.82113 2.8196 2.81854 2.81783 2.81738 2.81714 2.81705 2.81707 2.81717 2.81725 2.81743 2.81785 2.81872 2.81949 2.81881 2.81442 2.79583 2.7587 2.67681 2.53642 2.28678 2.06278 2.00953 2.00141 2.00021 2.00003 2 2 2 2 2 2 2 2 2 2 2 2 2 2 2 2 2 2 2 2 2 2 2 2 2 2 2 2 2 2.5 2.5 2.5 2.5 2.5 2.5 2.5 2.5 2.5 2.5 2.5 2.5 2.5 2.5 2.5 2.5 2.5 2.5 2.5 2.5 2.5 2.5 2.5 2.5 2.5 2.5 2.5 2.5 2.5 2.5 2.5 2.5 2.5 2.5 2.5 2.5 2.5 2.5 2.5 2.5 2.49999 2.49998 2.49994 2.49985 2.49965 2.49926 2.49857 2.49736 2.4953 2.49211 2.48782 2.48242 2.47589 2.46824 2.45955 2.44987 2.43928 2.42782 2.41561 2.40274 2.38929 2.37537 2.36105 2.34642 2.33153 2.31641 2.30103 2.28541 2.26957 2.25364 2.23764 2.22166 2.20579 2.19017 2.17478 2.15931 2.1438 2.1284 2.1131 2.09792 2.08285 2.06782 2.05288 2.038 2.02319 2.00849 1.99394 1.97959 1.96546 1.95161 1.93805 1.92478 1.91184 1.89931 1.88722 1.8756 1.86453 1.85409 1.84434 1.83532 1.82707 1.81967 1.81325 1.80777 1.80312 1.79931 1.79625 1.79376 1.79176 1.79019 1.78903 1.78825 1.78778 1.78758 1.78765 1.78795 1.78842 1.78904 1.78988 1.79102 1.79264 1.79496 1.79826 1.80278 1.80878 1.81633 1.8255 1.83629 1.84745 1.85775 1.86685 1.87419 1.87912 1.97589 2.40936 2.84603 2.86211 2.85813 2.85243 2.84611 2.83991 2.83432 2.82959 2.82577 2.82284 2.82067 2.81911 2.81802 2.81727 2.81678 2.81648 2.81634 2.8163 2.81639 2.8164 2.81601 2.81502 2.81334 2.81032 2.80558 2.79884 2.78518 2.75883 2.69356 2.56578 2.31557 2.06948 2.00981 2.00142 2.00021 2.00003 2 2 2 2 2 2 2 2 2 2 2 2 2 2 2 2 2 2 2 2 2 2 2 2 2 2 2 2 2 2.5 2.5 2.5 2.5 2.5 2.5 2.5 2.5 2.5 2.5 2.5 2.5 2.5 2.5 2.5 2.5 2.5 2.5 2.5 2.5 2.5 2.5 2.5 2.5 2.5 2.5 2.5 2.5 2.5 2.5 2.5 2.5 2.5 2.5 2.5 2.5 2.5 2.5 2.5 2.5 2.49999 2.49998 2.49994 2.49986 2.49968 2.49932 2.49863 2.49738 2.49531 2.4923 2.48832 2.48328 2.47711 2.46979 2.46136 2.45185 2.44135 2.42994 2.41772 2.40478 2.39124 2.37718 2.36269 2.34785 2.33273 2.31735 2.30157 2.28558 2.26958 2.25369 2.23782 2.22191 2.20593 2.18995 2.17412 2.15859 2.14337 2.12822 2.11302 2.09773 2.08243 2.06715 2.05197 2.0369 2.02198 2.00722 1.99264 1.97826 1.96409 1.95016 1.93651 1.92319 1.91017 1.89751 1.88534 1.87365 1.86252 1.85202 1.84224 1.83325 1.8251 1.81779 1.81134 1.80579 1.80114 1.79736 1.79438 1.79203 1.79021 1.78887 1.78795 1.78739 1.78712 1.78709 1.78724 1.78755 1.78801 1.78864 1.7895 1.79067 1.79229 1.79461 1.79786 1.80233 1.80831 1.81599 1.82535 1.83597 1.84711 1.85773 1.86726 1.87513 1.88003 1.97862 2.41298 2.84728 2.86232 2.85807 2.85228 2.84602 2.83988 2.83433 2.82963 2.82585 2.82294 2.8208 2.81927 2.81822 2.81753 2.81709 2.81682 2.81663 2.81648 2.81645 2.81659 2.81687 2.8175 2.81826 2.81866 2.81818 2.81394 2.80127 2.76524 2.67652 2.52012 2.27315 2.06368 2.00958 2.00141 2.00021 2.00003 2 2 2 2 2 2 2 2 2 2 2 2 2 2 2 2 2 2 2 2 2 2 2 2 2 2 2 2 2
				</DataArray>
				<DataArray Name="F1" type="Float32" format="ascii">
 1 1 1 1 1 1 1 1 1 1 1 1 1 1 1 1 1 1 1 1 1 1 1 1 1 1 1 1 1 1 1 1 1 1 1 1 1 1 1 1 1 1 1 1 1 1 1 1 1 1 1 1 1 1 1 1 1 1 1 1 1 1 1 1 1 1 1 1 1 1 1 1 1 1 1 1 1 1 1 1 1 1 1 1 1 1 1 1 1 1 1 1 1 1 1 1 1 1 1 1 1 1 1 1 1 1 1 1 1 1 1 1 1 1 1 1 1 1 1 1 1 1 1 1 1 1 1 1 1 1 1 1 1 0.857738 0.359418 0.011786 5.51619e-13 0 0 0 0 0 0 0 0 0 0 0 0 0 0 0 0 0 0 0 0 0 0 0 0 0 0 0 0 0 0 0 0 0 0 0 0 0 0 0 0 0 0 0 0 0 0 0 0 0 0 0 0 0 0 0 0 0 0 0 0 0 0 0 1 1 1 1 1 1 1 1 1 1 1 1 1 1 1 1 1 1 1 1 1 1 1 1 1 1 1 1 1 1 1 1 1 1 1 1 1 1 1 1 1 1 1 1 1 1 1 1 1 1 1 1 1 1 1 1 1 1 1 1 1 1 1 1 1 1 1 1 1 1 1 1 1 1 1 1 1 1 1 1 1 1 1 1 1 1 1 1 1 1 1 1 1 1 1 1 1 1 1 1 1 1 1 1 1 1 1 1 1 1 1 1 1 1 1 1 1 1 1 1 1 1 1 1 1 1 1 1 1 1 1 1 1 0.860587 0.362519 0.0125648 3.44713e-11 0 0 0 0 0 0 0 0 0 0 0 0 0 0 0 0 0 0 0 0 0 0 0 0 0 0 0 0 0 0 0 0 0 0 0 0 0 0 0 0 0 0 0 0 0 0 0 0 0 0 0 0 0 0 0 0 0 0 0 0 0 0 0 1 1 1 1 1 1 1 1 1 1 1 1 1 1 1 1 1 1 1 1 1 1 1 1 1 1 1 1 1 1 1 1 1 1 1 1 1 1 1 1 1 1 1 1 1 1 1 1 1 1 1 1 1 1 1 1 1 1 1 1 1 1 1 1 1 1 1 1 1 1 1 1 1 1 1 1 1 1 1 1 1 1 1 1 1 1 1 1 1 1 1 1 1 1 1 1 1 1 1 1 1 1 1 1 1 1 1 1 1 1 1 1 1 1 1 1 1 1 1 1 1 1 1 1 1 1 1 1 1 1 1 1 1 0.862331 0.364442 0.0130705 5.55943e-11 0 0 0 0 0 0 0 0 0 0 0 0 0 0 0 0 0 0 0 0 0 0 0 0 0 0 0 0 0 0 0 0 0 0 0 0 0 0 0 0 0 0 0 0 0 0 0 0 0 0 0 0 0 0 0 0 0 0 0 0 0 0 0 1 1 1 1 1 1 1 1 1 1 1 1 1 1 1 1 1 1 1 1 1 1 1 1 1 1 1 1 1 1 1 1 1 1 1 1 1 1 1 1 1 1 1 1 1 1 1 1 1 1 1 1 1 1 1 1 1 1 1 1 1 1 1 1 1 1 1 1 1 1 1 1 1 1 1 1 1 1 1 1 1 1 1 1 1 1 1 1 1 1 1 1 1 1 1 1 1 1 1 1 1 1 1 1 1 1 1 1 1 1 1 1 1 1 1 1 1 1 1 1 1 1 1 1 1 1 1 1 1 1 1 1 1 0.860961 0.363011 0.0127039 0 0 0 0 0 0 0 0 0 0 0 0 0 0 0 0 0 0 0 0 0 0 0 0 0 0 0 0 0 0 0 0 0 0 0 0 0 0 0 0 0 0 0 0 0 0 0 0 0 0 0 0 0 0 0 0 0 0 0 0 0 0 0 0 1 1 1 1 1 1 1 1 1 1 1 1 1 1 1 1 1 1 1 1 1 1 1 1 1 1 1 1 1 1 1 1 1 1 1 1 1 1 1 1 1 1 1 1 1 1 1 1 1 1 1 1 1 1 1 1 1 1 1 1 1 1 1 1 1 1 1 1 1 1 1 1 1 1 1 1 1 1 1 1 1 1 1 1 1 1 1 1 1 1 1 1 1 1 1 1 1 1 1 1 1 1 1 1 1 1 1 1 1 1 1 1 1 1 1 1 1 1 1 1 1 1 1 1 1 1 1 1 1 1 1 1 1 0.858242 0.360089 0.0119676 0 0 0 0 0 0 0 0 0 0 0 0 0 0 0 0 0 0 0 0 0 0 0 0 0 0 0 0 0 0 0 0 0 0 0 0 0 0 0 0 0 0 0 0 0 0 0 0 0 0 0 0 0 0 0 0 0 0 0 0 0 0 0 0
				</DataArray>
				<DataArray Name="F2" type="Float32" format="ascii">
 0 0 0 0 0 0 0 0 0 0 0 0 0 0 0 0 0 0 0 0 0 0 0 0 0 0 0 0 0 0 0 0 0 0 0 0 0 0 0 0 0 0 0 0 0 0 0 0 0 0 0 0 0 0 0 0 0 0 0 0 0 0 0 0 0 0 0 0 0 0 0 0 0 0 0 0 0 0 0 0 0 0 0 0 0 0 0 0 0 0 0 0 0 0 0 0 0 0 0 0 0 0 0 0 0 0 0 0 0 0 0 0 0 0 0 0 0 0 0 0 0 0 0 0 0 0 0 0 0 0 0 0 8.45798e-14 0.142262 0.640582 0.988214 1 1 1 1 1 1 1 1 1 1 1 1 1 1 1 1 1 1 1 1 1 1 1 1 1 1 1 1 1 1 1 1 1 1 1 1 1 1 1 1 1 1 1 1 1 1 1 1 1 1 1 1 1 1 1 1 1 1 1 1 1 1 1 1 0 0 0 0 0 0 0 0 0 0 0 0 0 0 0 0 0 0 0 0 0 0 0 0 0 0 0 0 0 0 0 0 0 0 0 0 0 0 0 0 0 0 0 0 0 0 0 0 0 0 0 0 0 0 0 0 0 0 0 0 0 0 0 0 0 0 0 0 0 0 0 0 0 0 0 0 0 0 0 0 0 0 0 0 0 0 0 0 0 0 0 0 0 0 0 0 0 0 0 0 0 0 0 0 0 0 0 0 0 0 0 0 0 0 0 0 0 0 0 0 0 0 0 0 0 0 0 0 0 0 0 0 0 0.139413 0.637481 0.987435 1 1 1 1 1 1 1 1 1 1 1 1 1 1 1 1 1 1 1 1 1 1 1 1 1 1 1 1 1 1 1 1 1 1 1 1 1 1 1 1 1 1 1 1 1 1 1 1 1 1 1 1 1 1 1 1 1 1 1 1 1 1 1 1 0 0 0 0 0 0 0 0 0 0 0 0 0 0 0 0 0 0 0 0 0 0 0 0 0 0 0 0 0 0 0 0 0 0 0 0 0 0 0 0 0 0 0 0 0 0 0 0 0 0 0 0 0 0 0 0 0 0 0 0 0 0 0 0 0 0 0 0 0 0 0 0 0 0 0 0 0 0 0 0 0 0 0 0 0 0 0 0 0 0 0 0 0 0 0 0 0 0 0 0 0 0 0 0 0 0 0 0 0 0 0 0 0 0 0 0 0 0 0 0 0 0 0 0 0 0 0 0 0 5.31862e-16 0 0 0 0.137669 0.635558 0.986929 1 1 1 1 1 1 1 1 1 1 1 1 1 1 1 1 1 1 1 1 1 1 1 1 1 1 1 1 1 1 1 1 1 1 1 1 1 1 1 1 1 1 1 1 1 1 1 1 1 1 1 1 1 1 1 1 1 1 1 1 1 1 1 1 0 0 0 0 0 0 0 0 0 0 0 0 0 0 0 0 0 0 0 0 0 0 0 0 0 0 0 0 0 0 0 0 0 0 0 0 0 0 0 0 0 0 0 0 0 0 0 0 0 0 0 0 0 0 0 0 0 0 0 0 0 0 0 0 0 0 0 0 0 0 0 0 0 0 0 0 0 0 0 0 0 0 0 0 0 0 0 0 0 0 0 0 0 0 0 0 0 0 0 0 0 0 0 0 0 0 0 0 0 0 0 0 0 0 0 0 0 0 0 0 0 0 0 0 0 0 0 0 0 0 0 0 0 0.139039 0.636989 0.987296 1 1 1 1 1 1 1 1 1 1 1 1 1 1 1 1 1 1 1 1 1 1 1 1 1 1 1 1 1 1 1 1 1 1 1 1 1 1 1 1 1 1 1 1 1 1 1 1 1 1 1 1 1 1 1 1 1 1 1 1 1 1 1 1 0 0 0 0 0 0 0 0 0 0 0 0 0 0 0 0 0 0 0 0 0 0 0 0 0 0 0 0 0 0 0 0 0 0 0 0 0 0 0 0 0 0 0 0 0 0 0 0 0 0 0 0 0 0 0 0 0 0 0 0 0 0 0 0 0 0 0 0 0 0 0 0 0 0 0 0 0 0 0 0 0 0 0 0 0 0 0 0 0 0 0 0 0 0 0 0 0 0 0 0 0 0 0 0 0 0 0 0 0 0 0 0 0 0 0 0 0 0 0 0 0 0 0 0 0 0 0 0 0 0 0 0 0 0.141758 0.639911 0.988032 1 1 1 1 1 1 1 1 1 1 1 1 1 1 1 1 1 1 1 1 1 1 1 1 1 1 1 1 1 1 1 1 1 1 1 1 1 1 1 1 1 1 1 1 1 1 1 1 1 1 1 1 1 1 1 1 1 1 1 1 1 1 1 1
				</DataArray>
				<DataArray Name="F3" type="Float32" format="ascii">