<?xml version="1.0"?>
<VTKFile type="PolyData">
	<PolyData>
		<Piece NumberOfPoints="1206" NumberOfPolys="1000">
			<Points>
				<DataArray type="Float32" NumberOfComponents="3" format="ascii">
 0 0 0 0.005 0 0 0.01 0 0 0.015 0 0 0.02 0 0 0.025 0 0 0.03 0 0 0.035 0 0 0.04 0 0 0.045 0 0 0.05 0 0 0.055 0 0 0.06 0 0 0.065 0 0 0.07 0 0 0.075 0 0 0.08 0 0 0.085 0 0 0.09 0 0 0.095 0 0 0.1 0 0 0.105 0 0 0.11 0 0 0.115 0 0 0.12 0 0 0.125 0 0 0.13 0 0 0.135 0 0 0.14 0 0 0.145 0 0 0.15 0 0 0.155 0 0 0.16 0 0 0.165 0 0 0.17 0 0 0.175 0 0 0.18 0 0 0.185 0 0 0.19 0 0 0.195 0 0 0.2 0 0 0.205 0 0 0.21 0 0 0.215 0 0 0.22 0 0 0.225 0 0 0.23 0 0 0.235 0 0 0.24 0 0 0.245 0 0 0.25 0 0 0.255 0 0 0.26 0 0 0.265 0 0 0.27 0 0 0.275 0 0 0.28 0 0 0.285 0 0 0.29 0 0 0.295 0 0 0.3 0 0 0.305 0 0 0.31 0 0 0.315 0 0 0.32 0 0 0.325 0 0 0.33 0 0 0.335 0 0 0.34 0 0 0.345 0 0 0.35 0 0 0.355 0 0 0.36 0 0 0.365 0 0 0.37 0 0 0.375 0 0 0.38 0 0 0.385 0 0 0.39 0 0 0.395 0 0 0.4 0 0 0.405 0 0 0.41 0 0 0.415 0 0 0.42 0 0 0.425 0 0 0.43 0 0 0.435 0 0 0.44 0 0 0.445 0 0 0.45 0 0 0.455 0 0 0.46 0 0 0.465 0 0 0.47 0 0 0.475 0 0 0.48 0 0 0.485 0 0 0.49 0 0 0.495 0 0 0.5 0 0 0.505 0 0 0.51 0 0 0.515 0 0 0.52 0 0 0.525 0 0 0.53 0 0 0.535 0 0 0.54 0 0 0.545 0 0 0.55 0 0 0.555 0 0 0.56 0 0 0.565 0 0 0.57 0 0 0.575 0 0 0.58 0 0 0.585 0 0 0.59 0 0 0.595 0 0 0.6 0 0 0.605 0 0 0.61 0 0 0.615 0 0 0.62 0 0 0.625 0 0 0.63 0 0 0.635 0 0 0.64 0 0 0.645 0 0 0.65 0 0 0.655 0 0 0.66 0 0 0.665 0 0 0.67 0 0 0.675 0 0 0.68 0 0 0.685 0 0 0.69 0 0 0.695 0 0 0.7 0 0 0.705 0 0 0.71 0 0 0.715 0 0 0.72 0 0 0.725 0 0 0.73 0 0 0.735 0 0 0.74 0 0 0.745 0 0 0.75 0 0 0.755 0 0 0.76 0 0 0.765 0 0 0.77 0 0 0.775 0 0 0.78 0 0 0.785 0 0 0.79 0 0 0.795 0 0 0.8 0 0 0.805 0 0 0.81 0 0 0.815 0 0 0.82 0 0 0.825 0 0 0.83 0 0 0.835 0 0 0.84 0 0 0.845 0 0 0.85 0 0 0.855 0 0 0.86 0 0 0.865 0 0 0.87 0 0 0.875 0 0 0.88 0 0 0.885 0 0 0.89 0 0 0.895 0 0 0.9 0 0 0.905 0 0 0.91 0 0 0.915 0 0 0.92 0 0 0.925 0 0 0.93 0 0 0.935 0 0 0.94 0 0 0.945 0 0 0.95 0 0 0.955 0 0 0.96 0 0 0.965 0 0 0.97 0 0 0.975 0 0 0.98 0 0 0.985 0 0 0.99 0 0 0.995 0 0 1 0 0 0 0.02 0 0.005 0.02 0 0.01 0.02 0 0.015 0.02 0 0.02 0.02 0 0.025 0.02 0 0.03 0.02 0 0.035 0.02 0 0.04 0.02 0 0.045 0.02 0 0.05 0.02 0 0.055 0.02 0 0.06 0.02 0 0.065 0.02 0 0.07 0.02 0 0.075 0.02 0 0.08 0.02 0 0.085 0.02 0 0.09 0.02 0 0.095 0.02 0 0.1 0.02 0 0.105 0.02 0 0.11 0.02 0 0.115 0.02 0 0.12 0.02 0 0.125 0.02 0 0.13 0.02 0 0.135 0.02 0 0.14 0.02 0 0.145 0.02 0 0.15 0.02 0 0.155 0.02 0 0.16 0.02 0 0.165 0.02 0 0.17 0.02 0 0.175 0.02 0 0.18 0.02 0 0.185 0.02 0 0.19 0.02 0 0.195 0.02 0 0.2 0.02 0 0.205 0.02 0 0.21 0.02 0 0.215 0.02 0 0.22 0.02 0 0.225 0.02 0 0.23 0.02 0 0.235 0.02 0 0.24 0.02 0 0.245 0.02 0 0.25 0.02 0 0.255 0.02 0 0.26 0.02 0 0.265 0.02 0 0.27 0.02 0 0.275 0.02 0 0.28 0.02 0 0.285 0.02 0 0.29 0.02 0 0.295 0.02 0 0.3 0.02 0 0.305 0.02 0 0.31 0.02 0 0.315 0.02 0 0.32 0.02 0 0.325 0.02 0 0.33 0.02 0 0.335 0.02 0 0.34 0.02 0 0.345 0.02 0 0.35 0.02 0 0.355 0.02 0 0.36 0.02 0 0.365 0.02 0 0.37 0.02 0 0.375 0.02 0 0.38 0.02 0 0.385 0.02 0 0.39 0.02 0 0.395 0.02 0 0.4 0.02 0 0.405 0.02 0 0.41 0.02 0 0.415 0.02 0 0.42 0.02 0 0.425 0.02 0 0.43 0.02 0 0.435 0.02 0 0.44 0.02 0 0.445 0.02 0 0.45 0.02 0 0.455 0.02 0 0.46 0.02 0 0.465 0.02 0 0.47 0.02 0 0.475 0.02 0 0.48 0.02 0 0.485 0.02 0 0.49 0.02 0 0.495 0.02 0 0.5 0.02 0 0.505 0.02 0 0.51 0.02 0 0.515 0.02 0 0.52 0.02 0 0.525 0.02 0 0.53 0.02 0 0.535 0.02 0 0.54 0.02 0 0.545 0.02 0 0.55 0.02 0 0.555 0.02 0 0.56 0.02 0 0.565 0.02 0 0.57 0.02 0 0.575 0.02 0 0.58 0.02 0 0.585 0.02 0 0.59 0.02 0 0.595 0.02 0 0.6 0.02 0 0.605 0.02 0 0.61 0.02 0 0.615 0.02 0 0.62 0.02 0 0.625 0.02 0 0.63 0.02 0 0.635 0.02 0 0.64 0.02 0 0.645 0.02 0 0.65 0.02 0 0.655 0.02 0 0.66 0.02 0 0.665 0.02 0 0.67 0.02 0 0.675 0.02 0 0.68 0.02 0 0.685 0.02 0 0.69 0.02 0 0.695 0.02 0 0.7 0.02 0 0.705 0.02 0 0.71 0.02 0 0.715 0.02 0 0.72 0.02 0 0.725 0.02 0 0.73 0.02 0 0.735 0.02 0 0.74 0.02 0 0.745 0.02 0 0.75 0.02 0 0.755 0.02 0 0.76 0.02 0 0.765 0.02 0 0.77 0.02 0 0.775 0.02 0 0.78 0.02 0 0.785 0.02 0 0.79 0.02 0 0.795 0.02 0 0.8 0.02 0 0.805 0.02 0 0.81 0.02 0 0.815 0.02 0 0.82 0.02 0 0.825 0.02 0 0.83 0.02 0 0.835 0.02 0 0.84 0.02 0 0.845 0.02 0 0.85 0.02 0 0.855 0.02 0 0.86 0.02 0 0.865 0.02 0 0.87 0.02 0 0.875 0.02 0 0.88 0.02 0 0.885 0.02 0 0.89 0.02 0 0.895 0.02 0 0.9 0.02 0 0.905 0.02 0 0.91 0.02 0 0.915 0.02 0 0.92 0.02 0 0.925 0.02 0 0.93 0.02 0 0.935 0.02 0 0.94 0.02 0 0.945 0.02 0 0.95 0.02 0 0.955 0.02 0 0.96 0.02 0 0.965 0.02 0 0.97 0.02 0 0.975 0.02 0 0.98 0.02 0 0.985 0.02 0 0.99 0.02 0 0.995 0.02 0 1 0.02 0 0 0.04 0 0.005 0.04 0 0.01 0.04 0 0.015 0.04 0 0.02 0.04 0 0.025 0.04 0 0.03 0.04 0 0.035 0.04 0 0.04 0.04 0 0.045 0.04 0 0.05 0.04 0 0.055 0.04 0 0.06 0.04 0 0.065 0.04 0 0.07 0.04 0 0.075 0.04 0 0.08 0.04 0 0.085 0.04 0 0.09 0.04 0 0.095 0.04 0 0.1 0.04 0 0.105 0.04 0 0.11 0.04 0 0.115 0.04 0 0.12 0.04 0 0.125 0.04 0 0.13 0.04 0 0.135 0.04 0 0.14 0.04 0 0.145 0.04 0 0.15 0.04 0 0.155 0.04 0 0.16 0.04 0 0.165 0.04 0 0.17 0.04 0 0.175 0.04 0 0.18 0.04 0 0.185 0.04 0 0.19 0.04 0 0.195 0.04 0 0.2 0.04 0 0.205 0.04 0 0.21 0.04 0 0.215 0.04 0 0.22 0.04 0 0.225 0.04 0 0.23 0.04 0 0.235 0.04 0 0.24 0.04 0 0.245 0.04 0 0.25 0.04 0 0.255 0.04 0 0.26 0.04 0 0.265 0.04 0 0.27 0.04 0 0.275 0.04 0 0.28 0.04 0 0.285 0.04 0 0.29 0.04 0 0.295 0.04 0 0.3 0.04 0 0.305 0.04 0 0.31 0.04 0 0.315 0.04 0 0.32 0.04 0 0.325 0.04 0 0.33 0.04 0 0.335 0.04 0 0.34 0.04 0 0.345 0.04 0 0.35 0.04 0 0.355 0.04 0 0.36 0.04 0 0.365 0.04 0 0.37 0.04 0 0.375 0.04 0 0.38 0.04 0 0.385 0.04 0 0.39 0.04 0 0.395 0.04 0 0.4 0.04 0 0.405 0.04 0 0.41 0.04 0 0.415 0.04 0 0.42 0.04 0 0.425 0.04 0 0.43 0.04 0 0.435 0.04 0 0.44 0.04 0 0.445 0.04 0 0.45 0.04 0 0.455 0.04 0 0.46 0.04 0 0.465 0.04 0 0.47 0.04 0 0.475 0.04 0 0.48 0.04 0 0.485 0.04 0 0.49 0.04 0 0.495 0.04 0 0.5 0.04 0 0.505 0.04 0 0.51 0.04 0 0.515 0.04 0 0.52 0.04 0 0.525 0.04 0 0.53 0.04 0 0.535 0.04 0 0.54 0.04 0 0.545 0.04 0 0.55 0.04 0 0.555 0.04 0 0.56 0.04 0 0.565 0.04 0 0.57 0.04 0 0.575 0.04 0 0.58 0.04 0 0.585 0.04 0 0.59 0.04 0 0.595 0.04 0 0.6 0.04 0 0.605 0.04 0 0.61 0.04 0 0.615 0.04 0 0.62 0.04 0 0.625 0.04 0 0.63 0.04 0 0.635 0.04 0 0.64 0.04 0 0.645 0.04 0 0.65 0.04 0 0.655 0.04 0 0.66 0.04 0 0.665 0.04 0 0.67 0.04 0 0.675 0.04 0 0.68 0.04 0 0.685 0.04 0 0.69 0.04 0 0.695 0.04 0 0.7 0.04 0 0.705 0.04 0 0.71 0.04 0 0.715 0.04 0 0.72 0.04 0 0.725 0.04 0 0.73 0.04 0 0.735 0.04 0 0.74 0.04 0 0.745 0.04 0 0.75 0.04 0 0.755 0.04 0 0.76 0.04 0 0.765 0.04 0 0.77 0.04 0 0.775 0.04 0 0.78 0.04 0 0.785 0.04 0 0.79 0.04 0 0.795 0.04 0 0.8 0.04 0 0.805 0.04 0 0.81 0.04 0 0.815 0.04 0 0.82 0.04 0 0.825 0.04 0 0.83 0.04 0 0.835 0.04 0 0.84 0.04 0 0.845 0.04 0 0.85 0.04 0 0.855 0.04 0 0.86 0.04 0 0.865 0.04 0 0.87 0.04 0 0.875 0.04 0 0.88 0.04 0 0.885 0.04 0 0.89 0.04 0 0.895 0.04 0 0.9 0.04 0 0.905 0.04 0 0.91 0.04 0 0.915 0.04 0 0.92 0.04 0 0.925 0.04 0 0.93 0.04 0 0.935 0.04 0 0.94 0.04 0 0.945 0.04 0 0.95 0.04 0 0.955 0.04 0 0.96 0.04 0 0.965 0.04 0 0.97 0.04 0 0.975 0.04 0 0.98 0.04 0 0.985 0.04 0 0.99 0.04 0 0.995 0.04 0 1 0.04 0 0 0.06 0 0.005 0.06 0 0.01 0.06 0 0.015 0.06 0 0.02 0.06 0 0.025 0.06 0 0.03 0.06 0 0.035 0.06 0 0.04 0.06 0 0.045 0.06 0 0.05 0.06 0 0.055 0.06 0 0.06 0.06 0 0.065 0.06 0 0.07 0.06 0 0.075 0.06 0 0.08 0.06 0 0.085 0.06 0 0.09 0.06 0 0.095 0.06 0 0.1 0.06 0 0.105 0.06 0 0.11 0.06 0 0.115 0.06 0 0.12 0.06 0 0.125 0.06 0 0.13 0.06 0 0.135 0.06 0 0.14 0.06 0 0.145 0.06 0 0.15 0.06 0 0.155 0.06 0 0.16 0.06 0 0.165 0.06 0 0.17 0.06 0 0.175 0.06 0 0.18 0.06 0 0.185 0.06 0 0.19 0.06 0 0.195 0.06 0 0.2 0.06 0 0.205 0.06 0 0.21 0.06 0 0.215 0.06 0 0.22 0.06 0 0.225 0.06 0 0.23 0.06 0 0.235 0.06 0 0.24 0.06 0 0.245 0.06 0 0.25 0.06 0 0.255 0.06 0 0.26 0.06 0 0.265 0.06 0 0.27 0.06 0 0.275 0.06 0 0.28 0.06 0 0.285 0.06 0 0.29 0.06 0 0.295 0.06 0 0.3 0.06 0 0.305 0.06 0 0.31 0.06 0 0.315 0.06 0 0.32 0.06 0 0.325 0.06 0 0.33 0.06 0 0.335 0.06 0 0.34 0.06 0 0.345 0.06 0 0.35 0.06 0 0.355 0.06 0 0.36 0.06 0 0.365 0.06 0 0.37 0.06 0 0.375 0.06 0 0.38 0.06 0 0.385 0.06 0 0.39 0.06 0 0.395 0.06 0 0.4 0.06 0 0.405 0.06 0 0.41 0.06 0 0.415 0.06 0 0.42 0.06 0 0.425 0.06 0 0.43 0.06 0 0.435 0.06 0 0.44 0.06 0 0.445 0.06 0 0.45 0.06 0 0.455 0.06 0 0.46 0.06 0 0.465 0.06 0 0.47 0.06 0 0.475 0.06 0 0.48 0.06 0 0.485 0.06 0 0.49 0.06 0 0.495 0.06 0 0.5 0.06 0 0.505 0.06 0 0.51 0.06 0 0.515 0.06 0 0.52 0.06 0 0.525 0.06 0 0.53 0.06 0 0.535 0.06 0 0.54 0.06 0 0.545 0.06 0 0.55 0.06 0 0.555 0.06 0 0.56 0.06 0 0.565 0.06 0 0.57 0.06 0 0.575 0.06 0 0.58 0.06 0 0.585 0.06 0 0.59 0.06 0 0.595 0.06 0 0.6 0.06 0 0.605 0.06 0 0.61 0.06 0 0.615 0.06 0 0.62 0.06 0 0.625 0.06 0 0.63 0.06 0 0.635 0.06 0 0.64 0.06 0 0.645 0.06 0 0.65 0.06 0 0.655 0.06 0 0.66 0.06 0 0.665 0.06 0 0.67 0.06 0 0.675 0.06 0 0.68 0.06 0 0.685 0.06 0 0.69 0.06 0 0.695 0.06 0 0.7 0.06 0 0.705 0.06 0 0.71 0.06 0 0.715 0.06 0 0.72 0.06 0 0.725 0.06 0 0.73 0.06 0 0.735 0.06 0 0.74 0.06 0 0.745 0.06 0 0.75 0.06 0 0.755 0.06 0 0.76 0.06 0 0.765 0.06 0 0.77 0.06 0 0.775 0.06 0 0.78 0.06 0 0.785 0.06 0 0.79 0.06 0 0.795 0.06 0 0.8 0.06 0 0.805 0.06 0 0.81 0.06 0 0.815 0.06 0 0.82 0.06 0 0.825 0.06 0 0.83 0.06 0 0.835 0.06 0 0.84 0.06 0 0.845 0.06 0 0.85 0.06 0 0.855 0.06 0 0.86 0.06 0 0.865 0.06 0 0.87 0.06 0 0.875 0.06 0 0.88 0.06 0 0.885 0.06 0 0.89 0.06 0 0.895 0.06 0 0.9 0.06 0 0.905 0.06 0 0.91 0.06 0 0.915 0.06 0 0.92 0.06 0 0.925 0.06 0 0.93 0.06 0 0.935 0.06 0 0.94 0.06 0 0.945 0.06 0 0.95 0.06 0 0.955 0.06 0 0.96 0.06 0 0.965 0.06 0 0.97 0.06 0 0.975 0.06 0 0.98 0.06 0 0.985 0.06 0 0.99 0.06 0 0.995 0.06 0 1 0.06 0 0 0.08 0 0.005 0.08 0 0.01 0.08 0 0.015 0.08 0 0.02 0.08 0 0.025 0.08 0 0.03 0.08 0 0.035 0.08 0 0.04 0.08 0 0.045 0.08 0 0.05 0.08 0 0.055 0.08 0 0.06 0.08 0 0.065 0.08 0 0.07 0.08 0 0.075 0.08 0 0.08 0.08 0 0.085 0.08 0 0.09 0.08 0 0.095 0.08 0 0.1 0.08 0 0.105 0.08 0 0.11 0.08 0 0.115 0.08 0 0.12 0.08 0 0.125 0.08 0 0.13 0.08 0 0.135 0.08 0 0.14 0.08 0 0.145 0.08 0 0.15 0.08 0 0.155 0.08 0 0.16 0.08 0 0.165 0.08 0
[...]
			<CellData Scalars="Density">
				<DataArray Name="Density" type="Float32" format="ascii">
 1 1 1 1 1 1 1 1 1 1 1 1 1 1 1 1 1 1 1 1 1 1 1 1 1 1 1 1 1 1 1 1 1 1 1 0.999999 0.999998 0.999993 0.999982 0.99995 0.999867 0.999678 0.99931 0.998663 0.997612 0.995998 0.993654 0.990398 0.986088 0.980693 0.974248 0.966825 0.958498 0.949303 0.939327 0.928645 0.917355 0.905555 0.893339 0.880794 0.867994 0.855008 0.841881 0.828613 0.815096 0.801353 0.787654 0.77419 0.761169 0.748523 0.736186 0.724104 0.712216 0.70032 0.688448 0.676885 0.665619 0.654577 0.643454 0.632151 0.620938 0.609846 0.598823 0.587984 0.577478 0.567257 0.557331 0.547687 0.538331 0.529248 0.520428 0.511888 0.503627 0.495667 0.488041 0.480779 0.47389 0.467386 0.461291 0.455639 0.450469 0.445805 0.441636 0.437886 0.434681 0.432036 0.429896 0.428203 0.426861 0.425775 0.424896 0.424194 0.423643 0.423219 0.422894 0.422632 0.422407 0.422206 0.422012 0.421802 0.421556 0.421249 0.420837 0.420258 0.419455 0.418371 0.416979 0.415264 0.413236 0.410978 0.408605 0.406254 0.40409 0.402274 0.401474 0.375777 0.306436 0.264015 0.263795 0.264128 0.264636 0.265205 0.265755 0.266248 0.266665 0.266998 0.267252 0.267436 0.267562 0.267646 0.2677 0.267734 0.267757 0.267771 0.267785 0.267809 0.267843 0.267862 0.267862 0.267884 0.267931 0.267927 0.267672 0.26672 0.264115 0.257134 0.243014 0.216609 0.183995 0.14485 0.128666 0.125607 0.125097 0.125015 0.125002 0.125 0.125 0.125 0.125 0.125 0.125 0.125 0.125 0.125 0.125 0.125 0.125 0.125 0.125 0.125 0.125 0.125 0.125 0.125 0.125 0.125 0.125 0.125 0.125 0.125 1 1 1 1 1 1 1 1 1 1 1 1 1 1 1 1 1 1 1 1 1 1 1 1 1 1 1 1 1 1 1 1 1 1 1 0.999999 0.999998 0.999993 0.999982 0.999949 0.999862 0.999655 0.99924 0.998506 0.997326 0.99556 0.993071 0.989731 0.985346 0.979833 0.97322 0.965596 0.957073 0.947748 0.937706 0.927031 0.915813 0.904137 0.892079 0.879709 0.867091 0.854281 0.841331 0.828259 0.815028 0.80172 0.788569 0.775721 0.763161 0.750608 0.738089 0.725672 0.713209 0.70054 0.687903 0.675608 0.663667 0.652131 0.641073 0.630277 0.61966 0.609183 0.598789 0.588332 0.578006 0.567857 0.557913 0.548132 0.538613 0.529416 0.520506 0.511894 0.503629 0.495688 0.488066 0.480787 0.473873 0.467344 0.461231 0.455583 0.450455 0.445899 0.441964 0.438647 0.435769 0.433234 0.43101 0.429129 0.427604 0.426384 0.425391 0.424578 0.423912 0.42338 0.422966 0.422655 0.422412 0.422205 0.422012 0.421807 0.42156 0.421239 0.420804 0.4202 0.419386 0.418296 0.416874 0.415079 0.413172 0.410882 0.408494 0.40617 0.404238 0.402731 0.401695 0.376471 0.307019 0.264084 0.263796 0.264121 0.264622 0.265187 0.265736 0.26623 0.266646 0.266981 0.267238 0.267425 0.267556 0.267644 0.267699 0.267732 0.267751 0.267754 0.267755 0.267765 0.267783 0.267784 0.267713 0.267559 0.267297 0.266805 0.266012 0.2646 0.262416 0.257125 0.247577 0.224372 0.190579 0.146678 0.128858 0.125647 0.125102 0.125015 0.125002 0.125 0.125 0.125 0.125 0.125 0.125 0.125 0.125 0.125 0.125 0.125 0.125 0.125 0.125 0.125 0.125 0.125 0.125 0.125 0.125 0.125 0.125 0.125 0.125 0.125 1 1 1 1 1 1 1 1 1 1 1 1 1 1 1 1 1 1 1 1 1 1 1 1 1 1 1 1 1 1 1 1 1 1 1 0.999999 0.999998 0.999993 0.999982 0.99995 0.999868 0.999681 0.999316 0.998683 0.997668 0.99609 0.993664 0.990315 0.985982 0.980612 0.974221 0.966848 0.958551 0.949391 0.939434 0.928776 0.917511 0.905739 0.893549 0.881027 0.86825 0.855286 0.842187 0.828962 0.815627 0.802316 0.789161 0.776151 0.76324 0.750333 0.73756 0.725018 0.71242 0.699431 0.686294 0.673415 0.660856 0.648669 0.636904 0.625409 0.614381 0.604135 0.594593 0.58523 0.575986 0.566812 0.557674 0.548461 0.539309 0.530386 0.521694 0.513252 0.505113 0.497254 0.489682 0.482444 0.475583 0.469125 0.463092 0.45751 0.452407 0.447816 0.443776 0.440176 0.43683 0.433868 0.431385 0.429206 0.427346 0.425963 0.424987 0.424284 0.423754 0.423335 0.422996 0.422724 0.422479 0.422232 0.422002 0.421781 0.421533 0.421213 0.420778 0.420176 0.41936 0.418263 0.416859 0.415155 0.412452 0.410164 0.408212 0.406583 0.404739 0.403024 0.4018 0.376835 0.307345 0.264106 0.263778 0.264096 0.264595 0.265161 0.265711 0.266201 0.266614 0.266946 0.2672 0.267383 0.267509 0.267592 0.267642 0.267667 0.26767 0.267662 0.267643 0.267607 0.267543 0.267444 0.267314 0.267226 0.267223 0.26724 0.267041 0.265897 0.262864 0.254287 0.24131 0.217249 0.187229 0.146849 0.129189 0.125683 0.125104 0.125016 0.125002 0.125 0.125 0.125 0.125 0.125 0.125 0.125 0.125 0.125 0.125 0.125 0.125 0.125 0.125 0.125 0.125 0.125 0.125 0.125 0.125 0.125 0.125 0.125 0.125 0.125 1 1 1 1 1 1 1 1 1 1 1 1 1 1 1 1 1 1 1 1 1 1 1 1 1 1 1 1 1 1 1 1 1 1 1 0.999999 0.999998 0.999993 0.999982 0.999951 0.999872 0.999702 0.99938 0.998815 0.997855 0.996213 0.993535 0.989813 0.985112 0.979434 0.972796 0.965228 0.956783 0.947521 0.937505 0.926824 0.915575 0.903858 0.891765 0.879384 0.866788 0.854042 0.841199 0.828246 0.815161 0.801968 0.788764 0.775577 0.762462 0.74953 0.736859 0.724436 0.712201 0.699984 0.687799 0.675955 0.66447 0.653206 0.642034 0.630885 0.619852 0.609174 0.59877 0.588375 0.578082 0.567962 0.558063 0.548349 0.538878 0.529713 0.52087 0.512342 0.504113 0.496181 0.488561 0.481282 0.474378 0.467886 0.461831 0.456229 0.451089 0.446414 0.442261 0.438696 0.435655 0.43307 0.430879 0.429056 0.427583 0.426403 0.425411 0.424586 0.423914 0.42337 0.422947 0.422635 0.422399 0.4222 0.42201 0.421803 0.421554 0.421239 0.42081 0.420214 0.419402 0.418318 0.416895 0.415077 0.413166 0.410877 0.408485 0.406163 0.404232 0.402751 0.401715 0.376536 0.307074 0.264061 0.263761 0.264084 0.264583 0.265152 0.265707 0.266204 0.266626 0.266965 0.267223 0.267409 0.267537 0.26762 0.267669 0.267698 0.267714 0.267723 0.267738 0.267764 0.267801 0.267839 0.267804 0.267579 0.267177 0.266476 0.265434 0.263788 0.261417 0.255868 0.246208 0.224937 0.193891 0.149951 0.129446 0.125695 0.125105 0.125016 0.125002 0.125 0.125 0.125 0.125 0.125 0.125 0.125 0.125 0.125 0.125 0.125 0.125 0.125 0.125 0.125 0.125 0.125 0.125 0.125 0.125 0.125 0.125 0.125 0.125 0.125 1 1 1 1 1 1 1 1 1 1 1 1 1 1 1 1 1 1 1 1 1 1 1 1 1 1 1 1 1 1 1 1 1 1 1 0.999999 0.999998 0.999993 0.999982 0.999952 0.99988 0.999728 0.999437 0.998898 0.997921 0.996234 0.993664 0.99022 0.985863 0.980526 0.974174 0.966825 0.958522 0.949323 0.939322 0.928611 0.917293 0.905471 0.893238 0.880684 0.867887 0.854919 0.841843 0.828599 0.815168 0.801743 0.788492 0.775404 0.762436 0.749589 0.736852 0.724238 0.711854 0.699797 0.687997 0.676451 0.665016 0.653605 0.642264 0.631059 0.619983 0.60896 0.598081 0.587433 0.577047 0.566907 0.557026 0.547401 0.538014 0.528813 0.519878 0.511259 0.50297 0.495029 0.487445 0.480229 0.473399 0.46698 0.461008 0.455507 0.450479 0.445912 0.441795 0.438146 0.434996 0.432354 0.430169 0.428403 0.426994 0.42586 0.424947 0.424221 0.423649 0.423209 0.422867 0.422583 0.422337 0.422122 0.421927 0.421724 0.42149 0.421201 0.420807 0.420252 0.419472 0.418403 0.416999 0.415233 0.413141 0.410845 0.408484 0.406223 0.404168 0.402553 0.401471 0.375917 0.306528 0.26396 0.263723 0.264051 0.264575 0.265155 0.265713 0.266211 0.266631 0.266964 0.267213 0.26739 0.267509 0.267582 0.267623 0.267639 0.267638 0.267626 0.267605 0.267563 0.267499 0.267461 0.267474 0.267541 0.267678 0.267712 0.267537 0.266678 0.264274 0.257647 0.243066 0.215653 0.182778 0.146371 0.129252 0.125686 0.125104 0.125016 0.125002 0.125 0.125 0.125 0.125 0.125 0.125 0.125 0.125 0.125 0.125 0.125 0.125 0.125 0.125 0.125 0.125 0.125 0.125 0.125 0.125 0.125 0.125 0.125 0.125 0.125
				</DataArray>
				<DataArray Name="Energy" type="Float32" format="ascii">
 2.5 2.5 2.5 2.5 2.5 2.5 2.5 2.5 2.5 2.5 2.5 2.5 2.5 2.5 2.5 2.5 2.5 2.5 2.5 2.5 2.5 2.5 2.5 2.5 2.5 2.5 2.5 2.5 2.5 2.5 2.5 2.5 2.5 2.5 2.5 2.5 2.5 2.49999 2.49998 2.49995 2.49987 2.49968 2.49931 2.49866 2.49761 2.49599 2.49364 2.49037 2.48603 2.48058 2.47404 2.46648 2.45797 2.44851 2.43819 2.42707 2.41524 2.40278 2.38977 2.37631 2.36246 2.34829 2.33383 2.31907 2.30389 2.2883 2.27263 2.2571 2.24195 2.2271 2.21246 2.19797 2.18357 2.16897 2.15427 2.13983 2.12562 2.11148 2.09702 2.08226 2.06753 2.05279 2.03798 2.0233 2.00895 1.99483 1.98098 1.96739 1.95409 1.94106 1.92829 1.91583 1.90368 1.89189 1.88053 1.86964 1.85926 1.84941 1.84016 1.83158 1.82374 1.81668 1.8104 1.8049 1.8004 1.79677 1.79387 1.79158 1.78978 1.78843 1.78748 1.78689 1.78659 1.78652 1.78663 1.78686 1.7872 1.78766 1.78824 1.78897 1.78993 1.79124 1.79305 1.79558 1.79906 1.80374 1.80983 1.81743 1.82644 1.83657 1.84728 1.85793 1.86745 1.8752 1.87957 2.00832 2.46297 2.85887 2.8611 2.85727 2.85173 2.84564 2.83972 2.8344 2.82988 2.82622 2.82337 2.82125 2.81972 2.81864 2.81793 2.81747 2.81719 2.81704 2.817 2.81706 2.81723 2.81742 2.81759 2.81787 2.8183 2.81864 2.81857 2.81625 2.80873 2.78585 2.73385 2.61593 2.431 2.15465 2.02615 2.00397 2.00062 2.0001 2.00001 2 2 2 2 2 2 2 2 2 2 2 2 2 2 2 2 2 2 2 2 2 2 2 2 2 2.5 2.5 2.5 2.5 2.5 2.5 2.5 2.5 2.5 2.5 2.5 2.5 2.5 2.5 2.5 2.5 2.5 2.5 2.5 2.5 2.5 2.5 2.5 2.5 2.5 2.5 2.5 2.5 2.5 2.5 2.5 2.5 2.5 2.5 2.5 2.5 2.5 2.49999 2.49998 2.49995 2.49986 2.49965 2.49924 2.49851 2.49732 2.49555 2.49305 2.48969 2.48527 2.47969 2.47297 2.46519 2.45645 2.44684 2.43642 2.42528 2.41348 2.40112 2.38825 2.37495 2.36126 2.34726 2.33297 2.31842 2.30355 2.28846 2.27343 2.25863 2.244 2.22923 2.21435 2.19944 2.18429 2.16873 2.1531 2.13779 2.12279 2.10817 2.09402 2.08 2.06605 2.05213 2.03816 2.02397 2.00985 1.99585 1.982 1.96825 1.95475 1.94159 1.92873 1.91618 1.90405 1.8923 1.88095 1.87004 1.85963 1.84977 1.84051 1.83197 1.82428 1.81756 1.81183 1.80698 1.80269 1.79897 1.79583 1.79331 1.79136 1.78987 1.78875 1.78794 1.7874 1.78711 1.78705 1.78718 1.78747 1.78788 1.78844 1.78916 1.79011 1.79141 1.79325 1.79582 1.79939 1.80416 1.81033 1.81798 1.82741 1.83766 1.84819 1.85788 1.86651 1.8737 1.87795 2.00435 2.45802 2.85786 2.86085 2.85712 2.85167 2.84564 2.83974 2.8344 2.82984 2.82612 2.82322 2.82104 2.81946 2.81834 2.81757 2.81704 2.81668 2.81643 2.81625 2.81616 2.81616 2.81614 2.81592 2.81544 2.81457 2.81287 2.8101 2.80503 2.79756 2.7787 2.74414 2.64586 2.46676 2.17015 2.02775 2.00423 2.00065 2.0001 2.00001 2 2 2 2 2 2 2 2 2 2 2 2 2 2 2 2 2 2 2 2 2 2 2 2 2 2.5 2.5 2.5 2.5 2.5 2.5 2.5 2.5 2.5 2.5 2.5 2.5 2.5 2.5 2.5 2.5 2.5 2.5 2.5 2.5 2.5 2.5 2.5 2.5 2.5 2.5 2.5 2.5 2.5 2.5 2.5 2.5 2.5 2.5 2.5 2.5 2.5 2.49999 2.49998 2.49995 2.49987 2.49968 2.49932 2.49868 2.49767 2.49608 2.49365 2.49028 2.48592 2.4805 2.47402 2.46651 2.45803 2.44862 2.43833 2.42724 2.41545 2.40303 2.39007 2.37666 2.36285 2.34872 2.33432 2.31964 2.3047 2.28965 2.27464 2.25966 2.24463 2.22946 2.2143 2.19927 2.18396 2.16796 2.15164 2.13551 2.11963 2.10408 2.08892 2.07396 2.05952 2.04596 2.03312 2.02034 2.0076 1.99485 1.98205 1.96903 1.95601 1.94324 1.93069 1.91841 1.90648 1.89488 1.88363 1.87282 1.86253 1.85281 1.84372 1.8353 1.82764 1.82077 1.81468 1.80914 1.80403 1.79962 1.79601 1.79306 1.79088 1.78945 1.78849 1.78785 1.78745 1.78724 1.7872 1.78732 1.78752 1.78784 1.78834 1.78905 1.79003 1.79137 1.79324 1.79585 1.79944 1.80424 1.81049 1.81847 1.82874 1.83917 1.84919 1.8578 1.86573 1.87267 1.87704 2.00206 2.4551 2.8573 2.86081 2.85709 2.85169 2.84571 2.83987 2.83459 2.83008 2.82643 2.82358 2.82145 2.81989 2.8188 2.81805 2.81757 2.81731 2.81722 2.81728 2.81746 2.81768 2.81791 2.81809 2.81844 2.81912 2.82002 2.82072 2.81849 2.81036 2.78117 2.73186 2.62082 2.44917 2.16994 2.03012 2.00448 2.00067 2.0001 2.00001 2 2 2 2 2 2 2 2 2 2 2 2 2 2 2 2 2 2 2 2 2 2 2 2 2 2.5 2.5 2.5 2.5 2.5 2.5 2.5 2.5 2.5 2.5 2.5 2.5 2.5 2.5 2.5 2.5 2.5 2.5 2.5 2.5 2.5 2.5 2.5 2.5 2.5 2.5 2.5 2.5 2.5 2.5 2.5 2.5 2.5 2.5 2.5 2.5 2.5 2.49999 2.49998 2.49995 2.49987 2.4997 2.49938 2.49881 2.49785 2.49621 2.49352 2.48978 2.48503 2.47929 2.47255 2.46482 2.45616 2.44661 2.43622 2.42507 2.41324 2.40083 2.38792 2.37461 2.36095 2.34701 2.33284 2.31842 2.30372 2.28876 2.27365 2.25841 2.24312 2.22789 2.21284 2.19794 2.18311 2.16815 2.1531 2.13836 2.12392 2.10957 2.09518 2.08068 2.06624 2.05211 2.03817 2.02411 2.01008 1.99615 1.98239 1.96875 1.95533 1.94223 1.92947 1.91706 1.90497 1.89322 1.88186 1.87096 1.86058 1.8508 1.84165 1.83317 1.8254 1.81838 1.81223 1.807 1.80257 1.79886 1.79579 1.79332 1.79141 1.78996 1.78883 1.788 1.78742 1.78709 1.787 1.78715 1.78746 1.78788 1.78843 1.78915 1.7901 1.79142 1.79327 1.79586 1.79944 1.80423 1.81044 1.81811 1.82757 1.83782 1.84828 1.85789 1.86644 1.87351 1.87776 2.00379 2.45723 2.85761 2.86071 2.85697 2.8515 2.84548 2.83961 2.83429 2.82975 2.82606 2.82317 2.82099 2.81941 2.81827 2.81748 2.81693 2.81656 2.81632 2.8162 2.8162 2.81628 2.81643 2.81636 2.81572 2.81436 2.81186 2.80806 2.80188 2.79338 2.7732 2.73734 2.64601 2.48246 2.19398 2.03241 2.00456 2.00067 2.0001 2.00001 2 2 2 2 2 2 2 2 2 2 2 2 2 2 2 2 2 2 2 2 2 2 2 2 2 2.5 2.5 2.5 2.5 2.5 2.5 2.5 2.5 2.5 2.5 2.5 2.5 2.5 2.5 2.5 2.5 2.5 2.5 2.5 2.5 2.5 2.5 2.5 2.5 2.5 2.5 2.5 2.5 2.5 2.5 2.5 2.5 2.5 2.5 2.5 2.5 2.5 2.49999 2.49998 2.49995 2.49988 2.49973 2.49944 2.4989 2.49792 2.49623 2.49365 2.49019 2.4858 2.4804 2.47396 2.46648 2.45799 2.44853 2.43818 2.42703 2.41516 2.40268 2.38966 2.37619 2.36234 2.34818 2.33378 2.31904 2.30396 2.28875 2.2736 2.25849 2.24337 2.22823 2.21308 2.19791 2.18289 2.16812 2.15351 2.13906 2.12459 2.10999 2.09533 2.08071 2.06611 2.05144 2.03684 2.02242 2.00821 1.9942 1.98041 1.96685 1.9535 1.94028 1.92736 1.9148 1.90263 1.89088 1.87958 1.86876 1.85847 1.84877 1.83974 1.83143 1.82383 1.81695 1.8108 1.80544 1.8009 1.79718 1.79418 1.79181 1.78997 1.78857 1.78759 1.78697 1.78664 1.78654 1.7866 1.78678 1.78708 1.78752 1.78809 1.78883 1.7898 1.79115 1.793 1.79558 1.79911 1.80386 1.81007 1.81786 1.82709 1.8373 1.84781 1.85797 1.86703 1.87444 1.87877 2.007 2.46153 2.85853 2.8609 2.85692 2.85135 2.84534 2.83952 2.83426 2.82978 2.82613 2.82329 2.82115 2.8196 2.81851 2.81776 2.81728 2.81696 2.81677 2.81668 2.81661 2.81654 2.8166 2.8169 2.81748 2.81848 2.81936 2.81982 2.81829 2.81165 2.79047 2.73714 2.61449 2.42643 2.16595 2.0305 2.0045 2.00067 2.0001 2.00001 2 2 2 2 2 2 2 2 2 2 2 2 2 2 2 2 2 2 2 2 2 2 2 2 2
				</DataArray>
				<DataArray Name="F1" type="Float32" format="ascii">
 1 1 1 1 1 1 1 1 1 1 1 1 1 1 1 1 1 1 1 1 1 1 1 1 1 1 1 1 1 1 1 1 1 1 1 1 1 1 1 1 1 1 1 1 1 1 1 1 1 1 1 1 1 1 1 1 1 1 1 1 1 1 1 1 1 1 1 1 1 1 1 1 1 1 1 1 1 1 1 1 1 1 1 1 1 1 1 1 1 1 1 1 1 1 1 1 1 1 1 1 1 1 1 1 1 1 1 1 1 1 1 1 1 1 1 1 1 1 1 1 1 1 1 1 1 1 1 1 1 1 1 1 1 1 1 0.816417 0.313093 0.00342953 4.94486e-13 0 0 0 0 0 0 0 0 0 0 0 0 0 0 0 0 0 0 0 0 0 0 0 0 0 0 0 0 0 0 0 0 0 0 0 0 0 0 0 0 0 0 0 0 0 0 0 0 0 0 0 0 0 0 0 0 0 0 0 0 0 1 1 1 1 1 1 1 1 1 1 1 1 1 1 1 1 1 1 1 1 1 1 1 1 1 1 1 1 1 1 1 1 1 1 1 1 1 1 1 1 1 1 1 1 1 1 1 1 1 1 1 1 1 1 1 1 1 1 1 1 1 1 1 1 1 1 1 1 1 1 1 1 1 1 1 1 1 1 1 1 1 1 1 1 1 1 1 1 1 1 1 1 1 1 1 1 1 1 1 1 1 1 1 1 1 1 1 1 1 1 1 1 1 1 1 1 1 1 1 1 1 1 1 1 1 1 1 1 1 1 1 1 1 1 1 0.819608 0.316561 0.00387807 2.50891e-12 0 0 0 0 0 0 0 0 0 0 0 0 0 0 0 0 0 0 0 0 0 0 0 0 0 0 0 0 0 0 0 0 0 0 0 0 0 0 0 0 0 0 0 0 0 0 0 0 0 0 0 0 0 0 0 0 0 0 0 0 0 1 1 1 1 1 1 1 1 1 1 1 1 1 1 1 1 1 1 1 1 1 1 1 1 1 1 1 1 1 1 1 1 1 1 1 1 1 1 1 1 1 1 1 1 1 1 1 1 1 1 1 1 1 1 1 1 1 1 1 1 1 1 1 1 1 1 1 1 1 1 1 1 1 1 1 1 1 1 1 1 1 1 1 1 1 1 1 1 1 1 1 1 1 1 1 1 1 1 1 1 1 1 1 1 1 1 1 1 1 1 1 1 1 1 1 1 1 1 1 1 1 1 1 1 1 1 1 1 1 1 1 1 1 1 1 0.821638 0.318754 0.00418912 3.62349e-12 0 0 0 0 0 0 0 0 0 0 0 0 0 0 0 0 0 0 0 0 0 0 0 0 0 0 0 0 0 0 0 0 0 0 0 0 0 0 0 0 0 0 0 0 0 0 0 0 0 0 0 0 0 0 0 0 0 0 0 0 0 1 1 1 1 1 1 1 1 1 1 1 1 1 1 1 1 1 1 1 1 1 1 1 1 1 1 1 1 1 1 1 1 1 1 1 1 1 1 1 1 1 1 1 1 1 1 1 1 1 1 1 1 1 1 1 1 1 1 1 1 1 1 1 1 1 1 1 1 1 1 1 1 1 1 1 1 1 1 1 1 1 1 1 1 1 1 1 1 1 1 1 1 1 1 1 1 1 1 1 1 1 1 1 1 1 1 1 1 1 1 1 1 1 1 1 1 1 1 1 1 1 1 1 1 1 1 1 1 1 1 1 1 1 1 1 0.820031 0.317069 0.00395193 4.83117e-12 0 0 0 0 0 0 0 0 0 0 0 0 0 0 0 0 0 0 0 0 0 0 0 0 0 0 0 0 0 0 0 0 0 0 0 0 0 0 0 0 0 0 0 0 0 0 0 0 0 0 0 0 0 0 0 0 0 0 0 0 0 1 1 1 1 1 1 1 1 1 1 1 1 1 1 1 1 1 1 1 1 1 1 1 1 1 1 1 1 1 1 1 1 1 1 1 1 1 1 1 1 1 1 1 1 1 1 1 1 1 1 1 1 1 1 1 1 1 1 1 1 1 1 1 1 1 1 1 1 1 1 1 1 1 1 1 1 1 1 1 1 1 1 1 1 1 1 1 1 1 1 1 1 1 1 1 1 1 1 1 1 1 1 1 1 1 1 1 1 1 1 1 1 1 1 1 1 1 1 1 1 1 1 1 1 1 1 1 1 1 1 1 1 1 1 1 0.81697 0.313782 0.00352038 1.55094e-12 0 0 0 0 0 0 0 0 0 0 0 0 0 0 0 0 0 0 0 0 0 0 0 0 0 0 0 0 0 0 0 0 0 0 0 0 0 0 0 0 0 0 0 0 0 0 0 0 0 0 0 0 0 0 0 0 0 0 0 0 0
				</DataArray>
				<DataArray Name="F2" type="Float32" format="ascii">
 0 0 0 0 0 0 0 0 0 0 0 0 0 0 0 0 0 0 0 0 0 0 0 0 0 0 0 0 0 0 0 0 0 0 0 0 0 0 0 0 0 0 0 0 0 0 0 0 0 0 0 0 0 0 0 0 0 0 0 0 0 0 0 0 0 0 0 0 0 0 0 0 0 0 0 0 0 0 0 0 0 0 0 0 0 0 0 0 0 0 0 0 0 0 0 0 0 0 0 0 0 0 0 0 0 0 0 0 0 0 0 0 0 0 0 0 0 0 0 0 0 0 0 0 0 0 0 0 0 0 0 0 0 0 0 0.183583 0.686907 0.99657 1 1 1 1 1 1 1 1 1 1 1 1 1 1 1 1 1 1 1 1 1 1 1 1 1 1 1 1 1 1 1 1 1 1 1 1 1 1 1 1 1 1 1 1 1 1 1 1 1 1 1 1 1 1 1 1 1 1 1 1 1 1 0 0 0 0 0 0 0 0 0 0 0 0 0 0 0 0 0 0 0 0 0 0 0 0 0 0 0 0 0 0 0 0 0 0 0 0 0 0 0 0 0 0 0 0 0 0 0 0 0 0 0 0 0 0 0 0 0 0 0 0 0 0 0 0 0 0 0 0 0 0 0 0 0 0 0 0 0 0 0 0 0 0 0 0 0 0 0 0 0 0 0 0 0 0 0 0 0 0 0 0 0 0 0 0 0 0 0 0 0 0 0 0 0 0 0 0 0 0 0 0 0 0 0 0 0 0 0 0 0 0 0 0 0 0 0 0.180392 0.683439 0.996122 1 1 1 1 1 1 1 1 1 1 1 1 1 1 1 1 1 1 1 1 1 1 1 1 1 1 1 1 1 1 1 1 1 1 1 1 1 1 1 1 1 1 1 1 1 1 1 1 1 1 1 1 1 1 1 1 1 1 1 1 1 1 0 0 0 0 0 0 0 0 0 0 0 0 0 0 0 0 0 0 0 0 0 0 0 0 0 0 0 0 0 0 0 0 0 0 0 0 0 0 0 0 0 0 0 0 0 0 0 0 0 0 0 0 0 0 0 0 0 0 0 0 0 0 0 0 0 0 0 0 0 0 0 0 0 0 0 0 0 0 0 0 0 0 0 0 0 0 0 0 0 0 0 0 0 0 0 0 0 0 0 0 0 0 0 0 0 0 0 0 0 0 0 0 0 0 0 0 0 0 0 0 0 0 0 0 0 0 0 0 0 0 0 0 0 0 0 0.178362 0.681246 0.995811 1 1 1 1 1 1 1 1 1 1 1 1 1 1 1 1 1 1 1 1 1 1 1 1 1 1 1 1 1 1 1 1 1 1 1 1 1 1 1 1 1 1 1 1 1 1 1 1 1 1 1 1 1 1 1 1 1 1 1 1 1 1 0 0 0 0 0 0 0 0 0 0 0 0 0 0 0 0 0 0 0 0 0 0 0 0 0 0 0 0 0 0 0 0 0 0 0 0 0 0 0 0 0 0 0 0 0 0 0 0 0 0 0 0 0 0 0 0 0 0 0 0 0 0 0 0 0 0 0 0 0 0 0 0 0 0 0 0 0 0 0 0 0 0 0 0 0 0 0 0 0 0 0 0 0 0 0 0 0 0 0 0 0 0 0 0 0 0 0 0 0 0 0 0 0 0 0 0 0 0 0 0 0 0 0 0 0 0 0 0 0 0 0 0 0 0 0 0.179969 0.682931 0.996048 1 1 1 1 1 1 1 1 1 1 1 1 1 1 1 1 1 1 1 1 1 1 1 1 1 1 1 1 1 1 1 1 1 1 1 1 1 1 1 1 1 1 1 1 1 1 1 1 1 1 1 1 1 1 1 1 1 1 1 1 1 1 0 0 0 0 0 0 0 0 0 0 0 0 0 0 0 0 0 0 0 0 0 0 0 0 0 0 0 0 0 0 0 0 0 0 0 0 0 0 0 0 0 0 0 0 0 0 0 0 0 0 0 0 0 0 0 0 0 0 0 0 0 0 0 0 0 0 0 0 0 0 0 0 0 0 0 0 0 0 0 0 0 0 0 0 0 0 0 0 0 0 0 0 0 0 0 0 0 0 0 0 0 0 0 0 0 0 0 0 0 0 0 0 0 0 0 0 0 0 0 0 0 0 0 0 0 0 0 0 0 0 0 0 0 0 0 0.18303 0.686218 0.99648 1 1 1 1 1 1 1 1 1 1 1 1 1 1 1 1 1 1 1 1 1 1 1 1 1 1 1 1 1 1 1 1 1 1 1 1 1 1 1 1 1 1 1 1 1 1 1 1 1 1 1 1 1 1 1 1 1 1 1 1 1 1
				</DataArray>
				<DataArray Name="F3" type="Float32" format="ascii">