<?xml version="1.0"?>
<VTKFile type="PolyData">
	<PolyData>
		<Piece NumberOfPoints="1206" NumberOfPolys="1000">
			<Points>
				<DataArray type="Float32" NumberOfComponents="3" format="ascii">
 0 0 0 0.005 0 0 0.01 0 0 0.015 0 0 0.02 0 0 0.025 0 0 0.03 0 0 0.035 0 0 0.04 0 0 0.045 0 0 0.05 0 0 0.055 0 0 0.06 0 0 0.065 0 0 0.07 0 0 0.075 0 0 0.08 0 0 0.085 0 0 0.09 0 0 0.095 0 0 0.1 0 0 0.105 0 0 0.11 0 0 0.115 0 0 0.12 0 0 0.125 0 0 0.13 0 0 0.135 0 0 0.14 0 0 0.145 0 0 0.15 0 0 0.155 0 0 0.16 0 0 0.165 0 0 0.17 0 0 0.175 0 0 0.18 0 0 0.185 0 0 0.19 0 0 0.195 0 0 0.2 0 0 0.205 0 0 0.21 0 0 0.215 0 0 0.22 0 0 0.225 0 0 0.23 0 0 0.235 0 0 0.24 0 0 0.245 0 0 0.25 0 0 0.255 0 0 0.26 0 0 0.265 0 0 0.27 0 0 0.275 0 0 0.28 0 0 0.285 0 0 0.29 0 0 0.295 0 0 0.3 0 0 0.305 0 0 0.31 0 0 0.315 0 0 0.32 0 0 0.325 0 0 0.33 0 0 0.335 0 0 0.34 0 0 0.345 0 0 0.35 0 0 0.355 0 0 0.36 0 0 0.365 0 0 0.37 0 0 0.375 0 0 0.38 0 0 0.385 0 0 0.39 0 0 0.395 0 0 0.4 0 0 0.405 0 0 0.41 0 0 0.415 0 0 0.42 0 0 0.425 0 0 0.43 0 0 0.435 0 0 0.44 0 0 0.445 0 0 0.45 0 0 0.455 0 0 0.46 0 0 0.465 0 0 0.47 0 0 0.475 0 0 0.48 0 0 0.485 0 0 0.49 0 0 0.495 0 0 0.5 0 0 0.505 0 0 0.51 0 0 0.515 0 0 0.52 0 0 0.525 0 0 0.53 0 0 0.535 0 0 0.54 0 0 0.545 0 0 0.55 0 0 0.555 0 0 0.56 0 0 0.565 0 0 0.57 0 0 0.575 0 0 0.58 0 0 0.585 0 0 0.59 0 0 0.595 0 0 0.6 0 0 0.605 0 0 0.61 0 0 0.615 0 0 0.62 0 0 0.625 0 0 0.63 0 0 0.635 0 0 0.64 0 0 0.645 0 0 0.65 0 0 0.655 0 0 0.66 0 0 0.665 0 0 0.67 0 0 0.675 0 0 0.68 0 0 0.685 0 0 0.69 0 0 0.695 0 0 0.7 0 0 0.705 0 0 0.71 0 0 0.715 0 0 0.72 0 0 0.725 0 0 0.73 0 0 0.735 0 0 0.74 0 0 0.745 0 0 0.75 0 0 0.755 0 0 0.76 0 0 0.765 0 0 0.77 0 0 0.775 0 0 0.78 0 0 0.785 0 0 0.79 0 0 0.795 0 0 0.8 0 0 0.805 0 0 0.81 0 0 0.815 0 0 0.82 0 0 0.825 0 0 0.83 0 0 0.835 0 0 0.84 0 0 0.845 0 0 0.85 0 0 0.855 0 0 0.86 0 0 0.865 0 0 0.87 0 0 0.875 0 0 0.88 0 0 0.885 0 0 0.89 0 0 0.895 0 0 0.9 0 0 0.905 0 0 0.91 0 0 0.915 0 0 0.92 0 0 0.925 0 0 0.93 0 0 0.935 0 0 0.94 0 0 0.945 0 0 0.95 0 0 0.955 0 0 0.96 0 0 0.965 0 0 0.97 0 0 0.975 0 0 0.98 0 0 0.985 0 0 0.99 0 0 0.995 0 0 1 0 0 0 0.02 0 0.005 0.02 0 0.01 0.02 0 0.015 0.02 0 0.02 0.02 0 0.025 0.02 0 0.03 0.02 0 0.035 0.02 0 0.04 0.02 0 0.045 0.02 0 0.05 0.02 0 0.055 0.02 0 0.06 0.02 0 0.065 0.02 0 0.07 0.02 0 0.075 0.02 0 0.08 0.02 0 0.085 0.02 0 0.09 0.02 0 0.095 0.02 0 0.1 0.02 0 0.105 0.02 0 0.11 0.02 0 0.115 0.02 0 0.12 0.02 0 0.125 0.02 0 0.13 0.02 0 0.135 0.02 0 0.14 0.02 0 0.145 0.02 0 0.15 0.02 0 0.155 0.02 0 0.16 0.02 0 0.165 0.02 0 0.17 0.02 0 0.175 0.02 0 0.18 0.02 0 0.185 0.02 0 0.19 0.02 0 0.195 0.02 0 0.2 0.02 0 0.205 0.02 0 0.21 0.02 0 0.215 0.02 0 0.22 0.02 0 0.225 0.02 0 0.23 0.02 0 0.235 0.02 0 0.24 0.02 0 0.245 0.02 0 0.25 0.02 0 0.255 0.02 0 0.26 0.02 0 0.265 0.02 0 0.27 0.02 0 0.275 0.02 0 0.28 0.02 0 0.285 0.02 0 0.29 0.02 0 0.295 0.02 0 0.3 0.02 0 0.305 0.02 0 0.31 0.02 0 0.315 0.02 0 0.32 0.02 0 0.325 0.02 0 0.33 0.02 0 0.335 0.02 0 0.34 0.02 0 0.345 0.02 0 0.35 0.02 0 0.355 0.02 0 0.36 0.02 0 0.365 0.02 0 0.37 0.02 0 0.375 0.02 0 0.38 0.02 0 0.385 0.02 0 0.39 0.02 0 0.395 0.02 0 0.4 0.02 0 0.405 0.02 0 0.41 0.02 0 0.415 0.02 0 0.42 0.02 0 0.425 0.02 0 0.43 0.02 0 0.435 0.02 0 0.44 0.02 0 0.445 0.02 0 0.45 0.02 0 0.455 0.02 0 0.46 0.02 0 0.465 0.02 0 0.47 0.02 0 0.475 0.02 0 0.48 0.02 0 0.485 0.02 0 0.49 0.02 0 0.495 0.02 0 0.5 0.02 0 0.505 0.02 0 0.51 0.02 0 0.515 0.02 0 0.52 0.02 0 0.525 0.02 0 0.53 0.02 0 0.535 0.02 0 0.54 0.02 0 0.545 0.02 0 0.55 0.02 0 0.555 0.02 0 0.56 0.02 0 0.565 0.02 0 0.57 0.02 0 0.575 0.02 0 0.58 0.02 0 0.585 0.02 0 0.59 0.02 0 0.595 0.02 0 0.6 0.02 0 0.605 0.02 0 0.61 0.02 0 0.615 0.02 0 0.62 0.02 0 0.625 0.02 0 0.63 0.02 0 0.635 0.02 0 0.64 0.02 0 0.645 0.02 0 0.65 0.02 0 0.655 0.02 0 0.66 0.02 0 0.665 0.02 0 0.67 0.02 0 0.675 0.02 0 0.68 0.02 0 0.685 0.02 0 0.69 0.02 0 0.695 0.02 0 0.7 0.02 0 0.705 0.02 0 0.71 0.02 0 0.715 0.02 0 0.72 0.02 0 0.725 0.02 0 0.73 0.02 0 0.735 0.02 0 0.74 0.02 0 0.745 0.02 0 0.75 0.02 0 0.755 0.02 0 0.76 0.02 0 0.765 0.02 0 0.77 0.02 0 0.775 0.02 0 0.78 0.02 0 0.785 0.02 0 0.79 0.02 0 0.795 0.02 0 0.8 0.02 0 0.805 0.02 0 0.81 0.02 0 0.815 0.02 0 0.82 0.02 0 0.825 0.02 0 0.83 0.02 0 0.835 0.02 0 0.84 0.02 0 0.845 0.02 0 0.85 0.02 0 0.855 0.02 0 0.86 0.02 0 0.865 0.02 0 0.87 0.02 0 0.875 0.02 0 0.88 0.02 0 0.885 0.02 0 0.89 0.02 0 0.895 0.02 0 0.9 0.02 0 0.905 0.02 0 0.91 0.02 0 0.915 0.02 0 0.92 0.02 0 0.925 0.02 0 0.93 0.02 0 0.935 0.02 0 0.94 0.02 0 0.945 0.02 0 0.95 0.02 0 0.955 0.02 0 0.96 0.02 0 0.965 0.02 0 0.97 0.02 0 0.975 0.02 0 0.98 0.02 0 0.985 0.02 0 0.99 0.02 0 0.995 0.02 0 1 0.02 0 0 0.04 0 0.005 0.04 0 0.01 0.04 0 0.015 0.04 0 0.02 0.04 0 0.025 0.04 0 0.03 0.04 0 0.035 0.04 0 0.04 0.04 0 0.045 0.04 0 0.05 0.04 0 0.055 0.04 0 0.06 0.04 0 0.065 0.04 0 0.07 0.04 0 0.075 0.04 0 0.08 0.04 0 0.085 0.04 0 0.09 0.04 0 0.095 0.04 0 0.1 0.04 0 0.105 0.04 0 0.11 0.04 0 0.115 0.04 0 0.12 0.04 0 0.125 0.04 0 0.13 0.04 0 0.135 0.04 0 0.14 0.04 0 0.145 0.04 0 0.15 0.04 0 0.155 0.04 0 0.16 0.04 0 0.165 0.04 0 0.17 0.04 0 0.175 0.04 0 0.18 0.04 0 0.185 0.04 0 0.19 0.04 0 0.195 0.04 0 0.2 0.04 0 0.205 0.04 0 0.21 0.04 0 0.215 0.04 0 0.22 0.04 0 0.225 0.04 0 0.23 0.04 0 0.235 0.04 0 0.24 0.04 0 0.245 0.04 0 0.25 0.04 0 0.255 0.04 0 0.26 0.04 0 0.265 0.04 0 0.27 0.04 0 0.275 0.04 0 0.28 0.04 0 0.285 0.04 0 0.29 0.04 0 0.295 0.04 0 0.3 0.04 0 0.305 0.04 0 0.31 0.04 0 0.315 0.04 0 0.32 0.04 0 0.325 0.04 0 0.33 0.04 0 0.335 0.04 0 0.34 0.04 0 0.345 0.04 0 0.35 0.04 0 0.355 0.04 0 0.36 0.04 0 0.365 0.04 0 0.37 0.04 0 0.375 0.04 0 0.38 0.04 0 0.385 0.04 0 0.39 0.04 0 0.395 0.04 0 0.4 0.04 0 0.405 0.04 0 0.41 0.04 0 0.415 0.04 0 0.42 0.04 0 0.425 0.04 0 0.43 0.04 0 0.435 0.04 0 0.44 0.04 0 0.445 0.04 0 0.45 0.04 0 0.455 0.04 0 0.46 0.04 0 0.465 0.04 0 0.47 0.04 0 0.475 0.04 0 0.48 0.04 0 0.485 0.04 0 0.49 0.04 0 0.495 0.04 0 0.5 0.04 0 0.505 0.04 0 0.51 0.04 0 0.515 0.04 0 0.52 0.04 0 0.525 0.04 0 0.53 0.04 0 0.535 0.04 0 0.54 0.04 0 0.545 0.04 0 0.55 0.04 0 0.555 0.04 0 0.56 0.04 0 0.565 0.04 0 0.57 0.04 0 0.575 0.04 0 0.58 0.04 0 0.585 0.04 0 0.59 0.04 0 0.595 0.04 0 0.6 0.04 0 0.605 0.04 0 0.61 0.04 0 0.615 0.04 0 0.62 0.04 0 0.625 0.04 0 0.63 0.04 0 0.635 0.04 0 0.64 0.04 0 0.645 0.04 0 0.65 0.04 0 0.655 0.04 0 0.66 0.04 0 0.665 0.04 0 0.67 0.04 0 0.675 0.04 0 0.68 0.04 0 0.685 0.04 0 0.69 0.04 0 0.695 0.04 0 0.7 0.04 0 0.705 0.04 0 0.71 0.04 0 0.715 0.04 0 0.72 0.04 0 0.725 0.04 0 0.73 0.04 0 0.735 0.04 0 0.74 0.04 0 0.745 0.04 0 0.75 0.04 0 0.755 0.04 0 0.76 0.04 0 0.765 0.04 0 0.77 0.04 0 0.775 0.04 0 0.78 0.04 0 0.785 0.04 0 0.79 0.04 0 0.795 0.04 0 0.8 0.04 0 0.805 0.04 0 0.81 0.04 0 0.815 0.04 0 0.82 0.04 0 0.825 0.04 0 0.83 0.04 0 0.835 0.04 0 0.84 0.04 0 0.845 0.04 0 0.85 0.04 0 0.855 0.04 0 0.86 0.04 0 0.865 0.04 0 0.87 0.04 0 0.875 0.04 0 0.88 0.04 0 0.885 0.04 0 0.89 0.04 0 0.895 0.04 0 0.9 0.04 0 0.905 0.04 0 0.91 0.04 0 0.915 0.04 0 0.92 0.04 0 0.925 0.04 0 0.93 0.04 0 0.935 0.04 0 0.94 0.04 0 0.945 0.04 0 0.95 0.04 0 0.955 0.04 0 0.96 0.04 0 0.965 0.04 0 0.97 0.04 0 0.975 0.04 0 0.98 0.04 0 0.985 0.04 0 0.99 0.04 0 0.995 0.04 0 1 0.04 0 0 0.06 0 0.005 0.06 0 0.01 0.06 0 0.015 0.06 0 0.02 0.06 0 0.025 0.06 0 0.03 0.06 0 0.035 0.06 0 0.04 0.06 0 0.045 0.06 0 0.05 0.06 0 0.055 0.06 0 0.06 0.06 0 0.065 0.06 0 0.07 0.06 0 0.075 0.06 0 0.08 0.06 0 0.085 0.06 0 0.09 0.06 0 0.095 0.06 0 0.1 0.06 0 0.105 0.06 0 0.11 0.06 0 0.115 0.06 0 0.12 0.06 0 0.125 0.06 0 0.13 0.06 0 0.135 0.06 0 0.14 0.06 0 0.145 0.06 0 0.15 0.06 0 0.155 0.06 0 0.16 0.06 0 0.165 0.06 0 0.17 0.06 0 0.175 0.06 0 0.18 0.06 0 0.185 0.06 0 0.19 0.06 0 0.195 0.06 0 0.2 0.06 0 0.205 0.06 0 0.21 0.06 0 0.215 0.06 0 0.22 0.06 0 0.225 0.06 0 0.23 0.06 0 0.235 0.06 0 0.24 0.06 0 0.245 0.06 0 0.25 0.06 0 0.255 0.06 0 0.26 0.06 0 0.265 0.06 0 0.27 0.06 0 0.275 0.06 0 0.28 0.06 0 0.285 0.06 0 0.29 0.06 0 0.295 0.06 0 0.3 0.06 0 0.305 0.06 0 0.31 0.06 0 0.315 0.06 0 0.32 0.06 0 0.325 0.06 0 0.33 0.06 0 0.335 0.06 0 0.34 0.06 0 0.345 0.06 0 0.35 0.06 0 0.355 0.06 0 0.36 0.06 0 0.365 0.06 0 0.37 0.06 0 0.375 0.06 0 0.38 0.06 0 0.385 0.06 0 0.39 0.06 0 0.395 0.06 0 0.4 0.06 0 0.405 0.06 0 0.41 0.06 0 0.415 0.06 0 0.42 0.06 0 0.425 0.06 0 0.43 0.06 0 0.435 0.06 0 0.44 0.06 0 0.445 0.06 0 0.45 0.06 0 0.455 0.06 0 0.46 0.06 0 0.465 0.06 0 0.47 0.06 0 0.475 0.06 0 0.48 0.06 0 0.485 0.06 0 0.49 0.06 0 0.495 0.06 0 0.5 0.06 0 0.505 0.06 0 0.51 0.06 0 0.515 0.06 0 0.52 0.06 0 0.525 0.06 0 0.53 0.06 0 0.535 0.06 0 0.54 0.06 0 0.545 0.06 0 0.55 0.06 0 0.555 0.06 0 0.56 0.06 0 0.565 0.06 0 0.57 0.06 0 0.575 0.06 0 0.58 0.06 0 0.585 0.06 0 0.59 0.06 0 0.595 0.06 0 0.6 0.06 0 0.605 0.06 0 0.61 0.06 0 0.615 0.06 0 0.62 0.06 0 0.625 0.06 0 0.63 0.06 0 0.635 0.06 0 0.64 0.06 0 0.645 0.06 0 0.65 0.06 0 0.655 0.06 0 0.66 0.06 0 0.665 0.06 0 0.67 0.06 0 0.675 0.06 0 0.68 0.06 0 0.685 0.06 0 0.69 0.06 0 0.695 0.06 0 0.7 0.06 0 0.705 0.06 0 0.71 0.06 0 0.715 0.06 0 0.72 0.06 0 0.725 0.06 0 0.73 0.06 0 0.735 0.06 0 0.74 0.06 0 0.745 0.06 0 0.75 0.06 0 0.755 0.06 0 0.76 0.06 0 0.765 0.06 0 0.77 0.06 0 0.775 0.06 0 0.78 0.06 0 0.785 0.06 0 0.79 0.06 0 0.795 0.06 0 0.8 0.06 0 0.805 0.06 0 0.81 0.06 0 0.815 0.06 0 0.82 0.06 0 0.825 0.06 0 0.83 0.06 0 0.835 0.06 0 0.84 0.06 0 0.845 0.06 0 0.85 0.06 0 0.855 0.06 0 0.86 0.06 0 0.865 0.06 0 0.87 0.06 0 0.875 0.06 0 0.88 0.06 0 0.885 0.06 0 0.89 0.06 0 0.895 0.06 0 0.9 0.06 0 0.905 0.06 0 0.91 0.06 0 0.915 0.06 0 0.92 0.06 0 0.925 0.06 0 0.93 0.06 0 0.935 0.06 0 0.94 0.06 0 0.945 0.06 0 0.95 0.06 0 0.955 0.06 0 0.96 0.06 0 0.965 0.06 0 0.97 0.06 0 0.975 0.06 0 0.98 0.06 0 0.985 0.06 0 0.99 0.06 0 0.995 0.06 0 1 0.06 0 0 0.08 0 0.005 0.08 0 0.01 0.08 0 0.015 0.08 0 0.02 0.08 0 0.025 0.08 0 0.03 0.08 0 0.035 0.08 0 0.04 0.08 0 0.045 0.08 0 0.05 0.08 0 0.055 0.08 0 0.06 0.08 0 0.065 0.08 0 0.07 0.08 0 0.075 0.08 0 0.08 0.08 0 0.085 0.08 0 0.09 0.08 0 0.095 0.08 0 0.1 0.08 0 0.105 0.08 0 0.11 0.08 0 0.115 0.08 0 0.12 0.08 0 0.125 0.08 0 0.13 0.08 0 0.135 0.08 0 0.14 0.08 0 0.145 0.08 0 0.15 0.08 0 0.155 0.08 0 0.16 0.08 0 0.165 0.08 0
[...]
			<CellData Scalars="Density">
				<DataArray Name="Density" type="Float32" format="ascii">
 1 1 1 1 1 1 1 1 1 1 1 1 1 1 1 1 1 1 1 1 1 1 1 1 1 1 1 1 1 1 1 1 1 1 1 0.999999 0.999998 0.999995 0.999987 0.999966 0.999913 0.999789 0.999531 0.999038 0.998176 0.996783 0.994689 0.991733 0.987789 0.982776 0.976664 0.969471 0.961256 0.952104 0.942116 0.9314 0.920063 0.908206 0.895922 0.883292 0.87039 0.857287 0.844041 0.830705 0.817326 0.803939 0.790571 0.777259 0.76401 0.750862 0.737808 0.724889 0.712083 0.699436 0.686925 0.67458 0.662393 0.650377 0.638541 0.626871 0.615409 0.604108 0.593033 0.582137 0.571459 0.560991 0.550759 0.540743 0.530983 0.521485 0.512265 0.503334 0.49473 0.486482 0.47862 0.471177 0.464191 0.45772 0.451814 0.446507 0.441803 0.43772 0.434295 0.43152 0.429307 0.427568 0.426259 0.425327 0.424681 0.424238 0.42394 0.423729 0.423559 0.423421 0.423315 0.423224 0.423134 0.423042 0.422936 0.422806 0.422645 0.42245 0.422221 0.421957 0.421649 0.42126 0.420712 0.419856 0.418449 0.416121 0.412352 0.406477 0.39774 0.385403 0.368921 0.348155 0.323655 0.302353 0.288611 0.279373 0.273615 0.270251 0.268415 0.267488 0.267065 0.266899 0.266856 0.266861 0.26688 0.2669 0.266918 0.266931 0.266938 0.266943 0.266947 0.266948 0.266948 0.266944 0.266939 0.266928 0.266917 0.266864 0.26682 0.26643 0.266022 0.263537 0.259341 0.244777 0.217821 0.166499 0.132807 0.126243 0.12519 0.125029 0.125004 0.125001 0.125 0.125 0.125 0.125 0.125 0.125 0.125 0.125 0.125 0.125 0.125 0.125 0.125 0.125 0.125 0.125 0.125 0.125 0.125 0.125 0.125 0.125 0.125 0.125 1 1 1 1 1 1 1 1 1 1 1 1 1 1 1 1 1 1 1 1 1 1 1 1 1 1 1 1 1 1 1 1 1 1 1 0.999999 0.999998 0.999995 0.999987 0.999966 0.999913 0.999789 0.999531 0.999038 0.998176 0.996783 0.994689 0.991733 0.987789 0.982776 0.976664 0.969471 0.961256 0.952104 0.942116 0.9314 0.920063 0.908206 0.895922 0.883292 0.87039 0.857287 0.844041 0.830705 0.817326 0.803939 0.790571 0.777259 0.76401 0.750862 0.737808 0.724889 0.712083 0.699436 0.686925 0.67458 0.662393 0.650377 0.638541 0.626871 0.615409 0.604108 0.593033 0.582137 0.571459 0.560991 0.550759 0.540743 0.530983 0.521485 0.512265 0.503334 0.49473 0.486482 0.47862 0.471177 0.464191 0.45772 0.451814 0.446507 0.441803 0.43772 0.434295 0.43152 0.429307 0.427568 0.426259 0.425327 0.424681 0.424238 0.42394 0.423729 0.423559 0.423421 0.423315 0.423224 0.423134 0.423042 0.422936 0.422806 0.422645 0.42245 0.422221 0.421957 0.421649 0.42126 0.420712 0.419856 0.418449 0.416121 0.412352 0.406477 0.39774 0.385403 0.368921 0.348155 0.323655 0.302353 0.288611 0.279373 0.273615 0.270251 0.268415 0.267488 0.267065 0.266899 0.266856 0.266861 0.26688 0.2669 0.266918 0.266931 0.266938 0.266943 0.266947 0.266948 0.266948 0.266944 0.266939 0.266928 0.266917 0.266864 0.26682 0.26643 0.266022 0.263537 0.259341 0.244777 0.217821 0.166499 0.132807 0.126243 0.12519 0.125029 0.125004 0.125001 0.125 0.125 0.125 0.125 0.125 0.125 0.125 0.125 0.125 0.125 0.125 0.125 0.125 0.125 0.125 0.125 0.125 0.125 0.125 0.125 0.125 0.125 0.125 0.125 1 1 1 1 1 1 1 1 1 1 1 1 1 1 1 1 1 1 1 1 1 1 1 1 1 1 1 1 1 1 1 1 1 1 1 0.999999 0.999998 0.999995 0.999987 0.999966 0.999913 0.999789 0.999531 0.999038 0.998176 0.996783 0.994689 0.991733 0.987789 0.982776 0.976664 0.969471 0.961256 0.952104 0.942116 0.9314 0.920063 0.908206 0.895922 0.883292 0.87039 0.857287 0.844041 0.830705 0.817326 0.803939 0.790571 0.777259 0.76401 0.750862 0.737808 0.724889 0.712083 0.699436 0.686925 0.67458 0.662393 0.650377 0.638541 0.626871 0.615409 0.604108 0.593033 0.582137 0.571459 0.560991 0.550759 0.540743 0.530983 0.521485 0.512265 0.503334 0.49473 0.486482 0.47862 0.471177 0.464191 0.45772 0.451814 0.446507 0.441803 0.43772 0.434295 0.43152 0.429307 0.427568 0.426259 0.425327 0.424681 0.424238 0.42394 0.423729 0.423559 0.423421 0.423315 0.423224 0.423134 0.423042 0.422936 0.422806 0.422645 0.42245 0.422221 0.421957 0.421649 0.42126 0.420712 0.419856 0.418449 0.416121 0.412352 0.406477 0.39774 0.385403 0.368921 0.348155 0.323655 0.302353 0.288611 0.279373 0.273615 0.270251 0.268415 0.267488 0.267065 0.266899 0.266856 0.266861 0.26688 0.2669 0.266918 0.266931 0.266938 0.266943 0.266947 0.266948 0.266948 0.266944 0.266939 0.266928 0.266917 0.266864 0.26682 0.26643 0.266022 0.263537 0.259341 0.244777 0.217821 0.166499 0.132807 0.126243 0.12519 0.125029 0.125004 0.125001 0.125 0.125 0.125 0.125 0.125 0.125 0.125 0.125 0.125 0.125 0.125 0.125 0.125 0.125 0.125 0.125 0.125 0.125 0.125 0.125 0.125 0.125 0.125 0.125 1 1 1 1 1 1 1 1 1 1 1 1 1 1 1 1 1 1 1 1 1 1 1 1 1 1 1 1 1 1 1 1 1 1 1 0.999999 0.999998 0.999995 0.999987 0.999966 0.999913 0.999789 0.999531 0.999038 0.998176 0.996783 0.994689 0.991733 0.987789 0.982776 0.976664 0.969471 0.961256 0.952104 0.942116 0.9314 0.920063 0.908206 0.895922 0.883292 0.87039 0.857287 0.844041 0.830705 0.817326 0.803939 0.790571 0.777259 0.76401 0.750862 0.737808 0.724889 0.712083 0.699436 0.686925 0.67458 0.662393 0.650377 0.638541 0.626871 0.615409 0.604108 0.593033 0.582137 0.571459 0.560991 0.550759 0.540743 0.530983 0.521485 0.512265 0.503334 0.49473 0.486482 0.47862 0.471177 0.464191 0.45772 0.451814 0.446507 0.441803 0.43772 0.434295 0.43152 0.429307 0.427568 0.426259 0.425327 0.424681 0.424238 0.42394 0.423729 0.423559 0.423421 0.423315 0.423224 0.423134 0.423042 0.422936 0.422806 0.422645 0.42245 0.422221 0.421957 0.421649 0.42126 0.420712 0.419856 0.418449 0.416121 0.412352 0.406477 0.39774 0.385403 0.368921 0.348155 0.323655 0.302353 0.288611 0.279373 0.273615 0.270251 0.268415 0.267488 0.267065 0.266899 0.266856 0.266861 0.26688 0.2669 0.266918 0.266931 0.266938 0.266943 0.266947 0.266948 0.266948 0.266944 0.266939 0.266928 0.266917 0.266864 0.26682 0.26643 0.266022 0.263537 0.259341 0.244777 0.217821 0.166499 0.132807 0.126243 0.12519 0.125029 0.125004 0.125001 0.125 0.125 0.125 0.125 0.125 0.125 0.125 0.125 0.125 0.125 0.125 0.125 0.125 0.125 0.125 0.125 0.125 0.125 0.125 0.125 0.125 0.125 0.125 0.125 1 1 1 1 1 1 1 1 1 1 1 1 1 1 1 1 1 1 1 1 1 1 1 1 1 1 1 1 1 1 1 1 1 1 1 0.999999 0.999998 0.999995 0.999987 0.999966 0.999913 0.999789 0.999531 0.999038 0.998176 0.996783 0.994689 0.991733 0.987789 0.982776 0.976664 0.969471 0.961256 0.952104 0.942116 0.9314 0.920063 0.908206 0.895922 0.883292 0.87039 0.857287 0.844041 0.830705 0.817326 0.803939 0.790571 0.777259 0.76401 0.750862 0.737808 0.724889 0.712083 0.699436 0.686925 0.67458 0.662393 0.650377 0.638541 0.626871 0.615409 0.604108 0.593033 0.582137 0.571459 0.560991 0.550759 0.540743 0.530983 0.521485 0.512265 0.503334 0.49473 0.486482 0.47862 0.471177 0.464191 0.45772 0.451814 0.446507 0.441803 0.43772 0.434295 0.43152 0.429307 0.427568 0.426259 0.425327 0.424681 0.424238 0.42394 0.423729 0.423559 0.423421 0.423315 0.423224 0.423134 0.423042 0.422936 0.422806 0.422645 0.42245 0.422221 0.421957 0.421649 0.42126 0.420712 0.419856 0.418449 0.416121 0.412352 0.406477 0.39774 0.385403 0.368921 0.348155 0.323655 0.302353 0.288611 0.279373 0.273615 0.270251 0.268415 0.267488 0.267065 0.266899 0.266856 0.266861 0.26688 0.2669 0.266918 0.266931 0.266938 0.266943 0.266947 0.266948 0.266948 0.266944 0.266939 0.266928 0.266917 0.266864 0.26682 0.26643 0.266022 0.263537 0.259341 0.244777 0.217821 0.166499 0.132807 0.126243 0.12519 0.125029 0.125004 0.125001 0.125 0.125 0.125 0.125 0.125 0.125 0.125 0.125 0.125 0.125 0.125 0.125 0.125 0.125 0.125 0.125 0.125 0.125 0.125 0.125 0.125 0.125 0.125 0.125
				</DataArray>
				<DataArray Name="Energy" type="Float32" format="ascii">
 2.5 2.5 2.5 2.5 2.5 2.5 2.5 2.5 2.5 2.5 2.5 2.5 2.5 2.5 2.5 2.5 2.5 2.5 2.5 2.5 2.5 2.5 2.5 2.5 2.5 2.5 2.5 2.5 2.5 2.5 2.5 2.5 2.5 2.5 2.5 2.5 2.5 2.49999 2.49999 2.49997 2.49991 2.49979 2.49953 2.49904 2.49818 2.49678 2.49468 2.49172 2.48776 2.48272 2.47655 2.46927 2.46092 2.45157 2.44132 2.43025 2.41846 2.40605 2.39308 2.37965 2.36582 2.35165 2.3372 2.3225 2.30762 2.29258 2.27743 2.26219 2.24688 2.23153 2.21613 2.20073 2.18531 2.16992 2.15453 2.13919 2.12388 2.10862 2.09343 2.07831 2.06326 2.04831 2.03345 2.01869 2.00411 1.9896 1.97528 1.96115 1.94721 1.93348 1.92003 1.9069 1.89411 1.8817 1.86976 1.85838 1.84766 1.83763 1.82836 1.81995 1.81257 1.80628 1.80093 1.79644 1.79293 1.79042 1.78867 1.78744 1.78664 1.78621 1.786 1.78602 1.78629 1.78668 1.78706 1.78742 1.7878 1.78822 1.7887 1.78927 1.78997 1.79081 1.7918 1.79293 1.79426 1.79594 1.7983 1.80199 1.80807 1.8182 1.83484 1.86137 1.90228 1.9632 2.05087 2.17275 2.33623 2.50093 2.62135 2.70824 2.76527 2.79969 2.81883 2.82859 2.83307 2.83481 2.83527 2.83521 2.83497 2.83471 2.8345 2.83432 2.83419 2.83408 2.83398 2.83391 2.83384 2.83378 2.83374 2.83368 2.83361 2.83336 2.83315 2.83148 2.82972 2.81908 2.80056 2.73442 2.59229 2.28501 2.05261 2.00802 2.00122 2.00019 2.00003 2 2 2 2 2 2 2 2 2 2 2 2 2 2 2 2 2 2 2 2 2 2 2 2 2 2.5 2.5 2.5 2.5 2.5 2.5 2.5 2.5 2.5 2.5 2.5 2.5 2.5 2.5 2.5 2.5 2.5 2.5 2.5 2.5 2.5 2.5 2.5 2.5 2.5 2.5 2.5 2.5 2.5 2.5 2.5 2.5 2.5 2.5 2.5 2.5 2.5 2.49999 2.49999 2.49997 2.49991 2.49979 2.49953 2.49904 2.49818 2.49678 2.49468 2.49172 2.48776 2.48272 2.47655 2.46927 2.46092 2.45157 2.44132 2.43025 2.41846 2.40605 2.39308 2.37965 2.36582 2.35165 2.3372 2.3225 2.30762 2.29258 2.27743 2.26219 2.24688 2.23153 2.21613 2.20073 2.18531 2.16992 2.15453 2.13919 2.12388 2.10862 2.09343 2.07831 2.06326 2.04831 2.03345 2.01869 2.00411 1.9896 1.97528 1.96115 1.94721 1.93348 1.92003 1.9069 1.89411 1.8817 1.86976 1.85838 1.84766 1.83763 1.82836 1.81995 1.81257 1.80628 1.80093 1.79644 1.79293 1.79042 1.78867 1.78744 1.78664 1.78621 1.786 1.78602 1.78629 1.78668 1.78706 1.78742 1.7878 1.78822 1.7887 1.78927 1.78997 1.79081 1.7918 1.79293 1.79426 1.79594 1.7983 1.80199 1.80807 1.8182 1.83484 1.86137 1.90228 1.9632 2.05087 2.17275 2.33623 2.50093 2.62135 2.70824 2.76527 2.79969 2.81883 2.82859 2.83307 2.83481 2.83527 2.83521 2.83497 2.83471 2.8345 2.83432 2.83419 2.83408 2.83398 2.83391 2.83384 2.83378 2.83374 2.83368 2.83361 2.83336 2.83315 2.83148 2.82972 2.81908 2.80056 2.73442 2.59229 2.28501 2.05261 2.00802 2.00122 2.00019 2.00003 2 2 2 2 2 2 2 2 2 2 2 2 2 2 2 2 2 2 2 2 2 2 2 2 2 2.5 2.5 2.5 2.5 2.5 2.5 2.5 2.5 2.5 2.5 2.5 2.5 2.5 2.5 2.5 2.5 2.5 2.5 2.5 2.5 2.5 2.5 2.5 2.5 2.5 2.5 2.5 2.5 2.5 2.5 2.5 2.5 2.5 2.5 2.5 2.5 2.5 2.49999 2.49999 2.49997 2.49991 2.49979 2.49953 2.49904 2.49818 2.49678 2.49468 2.49172 2.48776 2.48272 2.47655 2.46927 2.46092 2.45157 2.44132 2.43025 2.41846 2.40605 2.39308 2.37965 2.36582 2.35165 2.3372 2.3225 2.30762 2.29258 2.27743 2.26219 2.24688 2.23153 2.21613 2.20073 2.18531 2.16992 2.15453 2.13919 2.12388 2.10862 2.09343 2.07831 2.06326 2.04831 2.03345 2.01869 2.00411 1.9896 1.97528 1.96115 1.94721 1.93348 1.92003 1.9069 1.89411 1.8817 1.86976 1.85838 1.84766 1.83763 1.82836 1.81995 1.81257 1.80628 1.80093 1.79644 1.79293 1.79042 1.78867 1.78744 1.78664 1.78621 1.786 1.78602 1.78629 1.78668 1.78706 1.78742 1.7878 1.78822 1.7887 1.78927 1.78997 1.79081 1.7918 1.79293 1.79426 1.79594 1.7983 1.80199 1.80807 1.8182 1.83484 1.86137 1.90228 1.9632 2.05087 2.17275 2.33623 2.50093 2.62135 2.70824 2.76527 2.79969 2.81883 2.82859 2.83307 2.83481 2.83527 2.83521 2.83497 2.83471 2.8345 2.83432 2.83419 2.83408 2.83398 2.83391 2.83384 2.83378 2.83374 2.83368 2.83361 2.83336 2.83315 2.83148 2.82972 2.81908 2.80056 2.73442 2.59229 2.28501 2.05261 2.00802 2.00122 2.00019 2.00003 2 2 2 2 2 2 2 2 2 2 2 2 2 2 2 2 2 2 2 2 2 2 2 2 2 2.5 2.5 2.5 2.5 2.5 2.5 2.5 2.5 2.5 2.5 2.5 2.5 2.5 2.5 2.5 2.5 2.5 2.5 2.5 2.5 2.5 2.5 2.5 2.5 2.5 2.5 2.5 2.5 2.5 2.5 2.5 2.5 2.5 2.5 2.5 2.5 2.5 2.49999 2.49999 2.49997 2.49991 2.49979 2.49953 2.49904 2.49818 2.49678 2.49468 2.49172 2.48776 2.48272 2.47655 2.46927 2.46092 2.45157 2.44132 2.43025 2.41846 2.40605 2.39308 2.37965 2.36582 2.35165 2.3372 2.3225 2.30762 2.29258 2.27743 2.26219 2.24688 2.23153 2.21613 2.20073 2.18531 2.16992 2.15453 2.13919 2.12388 2.10862 2.09343 2.07831 2.06326 2.04831 2.03345 2.01869 2.00411 1.9896 1.97528 1.96115 1.94721 1.93348 1.92003 1.9069 1.89411 1.8817 1.86976 1.85838 1.84766 1.83763 1.82836 1.81995 1.81257 1.80628 1.80093 1.79644 1.79293 1.79042 1.78867 1.78744 1.78664 1.78621 1.786 1.78602 1.78629 1.78668 1.78706 1.78742 1.7878 1.78822 1.7887 1.78927 1.78997 1.79081 1.7918 1.79293 1.79426 1.79594 1.7983 1.80199 1.80807 1.8182 1.83484 1.86137 1.90228 1.9632 2.05087 2.17275 2.33623 2.50093 2.62135 2.70824 2.76527 2.79969 2.81883 2.82859 2.83307 2.83481 2.83527 2.83521 2.83497 2.83471 2.8345 2.83432 2.83419 2.83408 2.83398 2.83391 2.83384 2.83378 2.83374 2.83368 2.83361 2.83336 2.83315 2.83148 2.82972 2.81908 2.80056 2.73442 2.59229 2.28501 2.05261 2.00802 2.00122 2.00019 2.00003 2 2 2 2 2 2 2 2 2 2 2 2 2 2 2 2 2 2 2 2 2 2 2 2 2 2.5 2.5 2.5 2.5 2.5 2.5 2.5 2.5 2.5 2.5 2.5 2.5 2.5 2.5 2.5 2.5 2.5 2.5 2.5 2.5 2.5 2.5 2.5 2.5 2.5 2.5 2.5 2.5 2.5 2.5 2.5 2.5 2.5 2.5 2.5 2.5 2.5 2.49999 2.49999 2.49997 2.49991 2.49979 2.49953 2.49904 2.49818 2.49678 2.49468 2.49172 2.48776 2.48272 2.47655 2.46927 2.46092 2.45157 2.44132 2.43025 2.41846 2.40605 2.39308 2.37965 2.36582 2.35165 2.3372 2.3225 2.30762 2.29258 2.27743 2.26219 2.24688 2.23153 2.21613 2.20073 2.18531 2.16992 2.15453 2.13919 2.12388 2.10862 2.09343 2.07831 2.06326 2.04831 2.03345 2.01869 2.00411 1.9896 1.97528 1.96115 1.94721 1.93348 1.92003 1.9069 1.89411 1.8817 1.86976 1.85838 1.84766 1.83763 1.82836 1.81995 1.81257 1.80628 1.80093 1.79644 1.79293 1.79042 1.78867 1.78744 1.78664 1.78621 1.786 1.78602 1.78629 1.78668 1.78706 1.78742 1.7878 1.78822 1.7887 1.78927 1.78997 1.79081 1.7918 1.79293 1.79426 1.79594 1.7983 1.80199 1.80807 1.8182 1.83484 1.86137 1.90228 1.9632 2.05087 2.17275 2.33623 2.50093 2.62135 2.70824 2.76527 2.79969 2.81883 2.82859 2.83307 2.83481 2.83527 2.83521 2.83497 2.83471 2.8345 2.83432 2.83419 2.83408 2.83398 2.83391 2.83384 2.83378 2.83374 2.83368 2.83361 2.83336 2.83315 2.83148 2.82972 2.81908 2.80056 2.73442 2.59229 2.28501 2.05261 2.00802 2.00122 2.00019 2.00003 2 2 2 2 2 2 2 2 2 2 2 2 2 2 2 2 2 2 2 2 2 2 2 2 2
				</DataArray>
				<DataArray Name="F1" type="Float32" format="ascii">
 1 1 1 1 1 1 1 1 1 1 1 1 1 1 1 1 1 1 1 1 1 1 1 1 1 1 1 1 1 1 1 1 1 1 1 1 1 1 1 1 1 1 1 1 1 1 1 1 1 1 1 1 1 1 1 1 1 1 1 1 1 1 1 1 1 1 1 1 1 1 1 1 1 1 1 1 1 1 1 1 1 1 1 1 1 1 1 1 1 1 1 1 1 1 1 1 1 1 1 1 1 1 1 1 1 1 1 1 1 1 1 1 1 1 1 1 1 1 0.999999 0.999996 0.999987 0.999964 0.999903 0.999751 0.999394 0.998598 0.996913 0.993534 0.987103 0.975497 0.955639 0.923456 0.874097 0.802576 0.704877 0.57945 0.429385 0.288382 0.184384 0.112647 0.0659035 0.036993 0.0199568 0.0103627 0.00518607 0.00250436 0.00116813 0.000526755 0.000229817 9.70726e-05 3.97178e-05 1.57481e-05 6.05272e-06 2.25539e-06 8.14781e-07 2.85313e-07 9.68001e-08 3.17967e-08 1.01004e-08 3.09729e-09 9.14503e-10 2.5896e-10 6.99063e-11 1.78166e-11 4.22365e-12 9.05366e-13 1.68302e-13 2.44304e-14 2.32076e-15 0 0 0 0 0 0 0 0 0 0 0 0 0 0 0 0 0 0 0 0 0 0 0 0 0 0 0 0 0 0 0 1 1 1 1 1 1 1 1 1 1 1 1 1 1 1 1 1 1 1 1 1 1 1 1 1 1 1 1 1 1 1 1 1 1 1 1 1 1 1 1 1 1 1 1 1 1 1 1 1 1 1 1 1 1 1 1 1 1 1 1 1 1 1 1 1 1 1 1 1 1 1 1 1 1 1 1 1 1 1 1 1 1 1 1 1 1 1 1 1 1 1 1 1 1 1 1 1 1 1 1 1 1 1 1 1 1 1 1 1 1 1 1 1 1 1 1 1 1 0.999999 0.999996 0.999987 0.999964 0.999903 0.999751 0.999394 0.998598 0.996913 0.993534 0.987103 0.975497 0.955639 0.923456 0.874097 0.802576 0.704877 0.57945 0.429385 0.288382 0.184384 0.112647 0.0659035 0.036993 0.0199568 0.0103627 0.00518607 0.00250436 0.00116813 0.000526755 0.000229817 9.70726e-05 3.97178e-05 1.57481e-05 6.05272e-06 2.25539e-06 8.14781e-07 2.85313e-07 9.68001e-08 3.17967e-08 1.01004e-08 3.09729e-09 9.14503e-10 2.5896e-10 6.99063e-11 1.78166e-11 4.22365e-12 9.05366e-13 1.68302e-13 2.44304e-14 2.32076e-15 0 0 0 0 0 0 0 0 0 0 0 0 0 0 0 0 0 0 0 0 0 0 0 0 0 0 0 0 0 0 0 1 1 1 1 1 1 1 1 1 1 1 1 1 1 1 1 1 1 1 1 1 1 1 1 1 1 1 1 1 1 1 1 1 1 1 1 1 1 1 1 1 1 1 1 1 1 1 1 1 1 1 1 1 1 1 1 1 1 1 1 1 1 1 1 1 1 1 1 1 1 1 1 1 1 1 1 1 1 1 1 1 1 1 1 1 1 1 1 1 1 1 1 1 1 1 1 1 1 1 1 1 1 1 1 1 1 1 1 1 1 1 1 1 1 1 1 1 1 0.999999 0.999996 0.999987 0.999964 0.999903 0.999751 0.999394 0.998598 0.996913 0.993534 0.987103 0.975497 0.955639 0.923456 0.874097 0.802576 0.704877 0.57945 0.429385 0.288382 0.184384 0.112647 0.0659035 0.036993 0.0199568 0.0103627 0.00518607 0.00250436 0.00116813 0.000526755 0.000229817 9.70726e-05 3.97178e-05 1.57481e-05 6.05272e-06 2.25539e-06 8.14781e-07 2.85313e-07 9.68001e-08 3.17967e-08 1.01004e-08 3.09729e-09 9.14503e-10 2.5896e-10 6.99063e-11 1.78166e-11 4.22365e-12 9.05366e-13 1.68302e-13 2.44304e-14 2.32076e-15 0 0 0 0 0 0 0 0 0 0 0 0 0 0 0 0 0 0 0 0 0 0 0 0 0 0 0 0 0 0 0 1 1 1 1 1 1 1 1 1 1 1 1 1 1 1 1 1 1 1 1 1 1 1 1 1 1 1 1 1 1 1 1 1 1 1 1 1 1 1 1 1 1 1 1 1 1 1 1 1 1 1 1 1 1 1 1 1 1 1 1 1 1 1 1 1 1 1 1 1 1 1 1 1 1 1 1 1 1 1 1 1 1 1 1 1 1 1 1 1 1 1 1 1 1 1 1 1 1 1 1 1 1 1 1 1 1 1 1 1 1 1 1 1 1 1 1 1 1 0.999999 0.999996 0.999987 0.999964 0.999903 0.999751 0.999394 0.998598 0.996913 0.993534 0.987103 0.975497 0.955639 0.923456 0.874097 0.802576 0.704877 0.57945 0.429385 0.288382 0.184384 0.112647 0.0659035 0.036993 0.0199568 0.0103627 0.00518607 0.00250436 0.00116813 0.000526755 0.000229817 9.70726e-05 3.97178e-05 1.57481e-05 6.05272e-06 2.25539e-06 8.14781e-07 2.85313e-07 9.68001e-08 3.17967e-08 1.01004e-08 3.09729e-09 9.14503e-10 2.5896e-10 6.99063e-11 1.78166e-11 4.22365e-12 9.05366e-13 1.68302e-13 2.44304e-14 2.32076e-15 0 0 0 0 0 0 0 0 0 0 0 0 0 0 0 0 0 0 0 0 0 0 0 0 0 0 0 0 0 0 0 1 1 1 1 1 1 1 1 1 1 1 1 1 1 1 1 1 1 1 1 1 1 1 1 1 1 1 1 1 1 1 1 1 1 1 1 1 1 1 1 1 1 1 1 1 1 1 1 1 1 1 1 1 1 1 1 1 1 1 1 1 1 1 1 1 1 1 1 1 1 1 1 1 1 1 1 1 1 1 1 1 1 1 1 1 1 1 1 1 1 1 1 1 1 1 1 1 1 1 1 1 1 1 1 1 1 1 1 1 1 1 1 1 1 1 1 1 1 0.999999 0.999996 0.999987 0.999964 0.999903 0.999751 0.999394 0.998598 0.996913 0.993534 0.987103 0.975497 0.955639 0.923456 0.874097 0.802576 0.704877 0.57945 0.429385 0.288382 0.184384 0.112647 0.0659035 0.036993 0.0199568 0.0103627 0.00518607 0.00250436 0.00116813 0.000526755 0.000229817 9.70726e-05 3.97178e-05 1.57481e-05 6.05272e-06 2.25539e-06 8.14781e-07 2.85313e-07 9.68001e-08 3.17967e-08 1.01004e-08 3.09729e-09 9.14503e-10 2.5896e-10 6.99063e-11 1.78166e-11 4.22365e-12 9.05366e-13 1.68302e-13 2.44304e-14 2.32076e-15 0 0 0 0 0 0 0 0 0 0 0 0 0 0 0 0 0 0 0 0 0 0 0 0 0 0 0 0 0 0 0
				</DataArray>
				<DataArray Name="F2" type="Float32" format="ascii">