<?xml version="1.0"?>
<VTKFile type="PolyData">
	<PolyData>
		<Piece NumberOfPoints="1206" NumberOfPolys="1000">
			<Points>
				<DataArray type="Float32" NumberOfComponents="3" format="ascii">
 0 0 0 0.005 0 0 0.01 0 0 0.015 0 0 0.02 0 0 0.025 0 0 0.03 0 0 0.035 0 0 0.04 0 0 0.045 0 0 0.05 0 0 0.055 0 0 0.06 0 0 0.065 0 0 0.07 0 0 0.075 0 0 0.08 0 0 0.085 0 0 0.09 0 0 0.095 0 0 0.1 0 0 0.105 0 0 0.11 0 0 0.115 0 0 0.12 0 0 0.125 0 0 0.13 0 0 0.135 0 0 0.14 0 0 0.145 0 0 0.15 0 0 0.155 0 0 0.16 0 0 0.165 0 0 0.17 0 0 0.175 0 0 0.18 0 0 0.185 0 0 0.19 0 0 0.195 0 0 0.2 0 0 0.205 0 0 0.21 0 0 0.215 0 0 0.22 0 0 0.225 0 0 0.23 0 0 0.235 0 0 0.24 0 0 0.245 0 0 0.25 0 0 0.255 0 0 0.26 0 0 0.265 0 0 0.27 0 0 0.275 0 0 0.28 0 0 0.285 0 0 0.29 0 0 0.295 0 0 0.3 0 0 0.305 0 0 0.31 0 0 0.315 0 0 0.32 0 0 0.325 0 0 0.33 0 0 0.335 0 0 0.34 0 0 0.345 0 0 0.35 0 0 0.355 0 0 0.36 0 0 0.365 0 0 0.37 0 0 0.375 0 0 0.38 0 0 0.385 0 0 0.39 0 0 0.395 0 0 0.4 0 0 0.405 0 0 0.41 0 0 0.415 0 0 0.42 0 0 0.425 0 0 0.43 0 0 0.435 0 0 0.44 0 0 0.445 0 0 0.45 0 0 0.455 0 0 0.46 0 0 0.465 0 0 0.47 0 0 0.475 0 0 0.48 0 0 0.485 0 0 0.49 0 0 0.495 0 0 0.5 0 0 0.505 0 0 0.51 0 0 0.515 0 0 0.52 0 0 0.525 0 0 0.53 0 0 0.535 0 0 0.54 0 0 0.545 0 0 0.55 0 0 0.555 0 0 0.56 0 0 0.565 0 0 0.57 0 0 0.575 0 0 0.58 0 0 0.585 0 0 0.59 0 0 0.595 0 0 0.6 0 0 0.605 0 0 0.61 0 0 0.615 0 0 0.62 0 0 0.625 0 0 0.63 0 0 0.635 0 0 0.64 0 0 0.645 0 0 0.65 0 0 0.655 0 0 0.66 0 0 0.665 0 0 0.67 0 0 0.675 0 0 0.68 0 0 0.685 0 0 0.69 0 0 0.695 0 0 0.7 0 0 0.705 0 0 0.71 0 0 0.715 0 0 0.72 0 0 0.725 0 0 0.73 0 0 0.735 0 0 0.74 0 0 0.745 0 0 0.75 0 0 0.755 0 0 0.76 0 0 0.765 0 0 0.77 0 0 0.775 0 0 0.78 0 0 0.785 0 0 0.79 0 0 0.795 0 0 0.8 0 0 0.805 0 0 0.81 0 0 0.815 0 0 0.82 0 0 0.825 0 0 0.83 0 0 0.835 0 0 0.84 0 0 0.845 0 0 0.85 0 0 0.855 0 0 0.86 0 0 0.865 0 0 0.87 0 0 0.875 0 0 0.88 0 0 0.885 0 0 0.89 0 0 0.895 0 0 0.9 0 0 0.905 0 0 0.91 0 0 0.915 0 0 0.92 0 0 0.925 0 0 0.93 0 0 0.935 0 0 0.94 0 0 0.945 0 0 0.95 0 0 0.955 0 0 0.96 0 0 0.965 0 0 0.97 0 0 0.975 0 0 0.98 0 0 0.985 0 0 0.99 0 0 0.995 0 0 1 0 0 0 0.02 0 0.005 0.02 0 0.01 0.02 0 0.015 0.02 0 0.02 0.02 0 0.025 0.02 0 0.03 0.02 0 0.035 0.02 0 0.04 0.02 0 0.045 0.02 0 0.05 0.02 0 0.055 0.02 0 0.06 0.02 0 0.065 0.02 0 0.07 0.02 0 0.075 0.02 0 0.08 0.02 0 0.085 0.02 0 0.09 0.02 0 0.095 0.02 0 0.1 0.02 0 0.105 0.02 0 0.11 0.02 0 0.115 0.02 0 0.12 0.02 0 0.125 0.02 0 0.13 0.02 0 0.135 0.02 0 0.14 0.02 0 0.145 0.02 0 0.15 0.02 0 0.155 0.02 0 0.16 0.02 0 0.165 0.02 0 0.17 0.02 0 0.175 0.02 0 0.18 0.02 0 0.185 0.02 0 0.19 0.02 0 0.195 0.02 0 0.2 0.02 0 0.205 0.02 0 0.21 0.02 0 0.215 0.02 0 0.22 0.02 0 0.225 0.02 0 0.23 0.02 0 0.235 0.02 0 0.24 0.02 0 0.245 0.02 0 0.25 0.02 0 0.255 0.02 0 0.26 0.02 0 0.265 0.02 0 0.27 0.02 0 0.275 0.02 0 0.28 0.02 0 0.285 0.02 0 0.29 0.02 0 0.295 0.02 0 0.3 0.02 0 0.305 0.02 0 0.31 0.02 0 0.315 0.02 0 0.32 0.02 0 0.325 0.02 0 0.33 0.02 0 0.335 0.02 0 0.34 0.02 0 0.345 0.02 0 0.35 0.02 0 0.355 0.02 0 0.36 0.02 0 0.365 0.02 0 0.37 0.02 0 0.375 0.02 0 0.38 0.02 0 0.385 0.02 0 0.39 0.02 0 0.395 0.02 0 0.4 0.02 0 0.405 0.02 0 0.41 0.02 0 0.415 0.02 0 0.42 0.02 0 0.425 0.02 0 0.43 0.02 0 0.435 0.02 0 0.44 0.02 0 0.445 0.02 0 0.45 0.02 0 0.455 0.02 0 0.46 0.02 0 0.465 0.02 0 0.47 0.02 0 0.475 0.02 0 0.48 0.02 0 0.485 0.02 0 0.49 0.02 0 0.495 0.02 0 0.5 0.02 0 0.505 0.02 0 0.51 0.02 0 0.515 0.02 0 0.52 0.02 0 0.525 0.02 0 0.53 0.02 0 0.535 0.02 0 0.54 0.02 0 0.545 0.02 0 0.55 0.02 0 0.555 0.02 0 0.56 0.02 0 0.565 0.02 0 0.57 0.02 0 0.575 0.02 0 0.58 0.02 0 0.585 0.02 0 0.59 0.02 0 0.595 0.02 0 0.6 0.02 0 0.605 0.02 0 0.61 0.02 0 0.615 0.02 0 0.62 0.02 0 0.625 0.02 0 0.63 0.02 0 0.635 0.02 0 0.64 0.02 0 0.645 0.02 0 0.65 0.02 0 0.655 0.02 0 0.66 0.02 0 0.665 0.02 0 0.67 0.02 0 0.675 0.02 0 0.68 0.02 0 0.685 0.02 0 0.69 0.02 0 0.695 0.02 0 0.7 0.02 0 0.705 0.02 0 0.71 0.02 0 0.715 0.02 0 0.72 0.02 0 0.725 0.02 0 0.73 0.02 0 0.735 0.02 0 0.74 0.02 0 0.745 0.02 0 0.75 0.02 0 0.755 0.02 0 0.76 0.02 0 0.765 0.02 0 0.77 0.02 0 0.775 0.02 0 0.78 0.02 0 0.785 0.02 0 0.79 0.02 0 0.795 0.02 0 0.8 0.02 0 0.805 0.02 0 0.81 0.02 0 0.815 0.02 0 0.82 0.02 0 0.825 0.02 0 0.83 0.02 0 0.835 0.02 0 0.84 0.02 0 0.845 0.02 0 0.85 0.02 0 0.855 0.02 0 0.86 0.02 0 0.865 0.02 0 0.87 0.02 0 0.875 0.02 0 0.88 0.02 0 0.885 0.02 0 0.89 0.02 0 0.895 0.02 0 0.9 0.02 0 0.905 0.02 0 0.91 0.02 0 0.915 0.02 0 0.92 0.02 0 0.925 0.02 0 0.93 0.02 0 0.935 0.02 0 0.94 0.02 0 0.945 0.02 0 0.95 0.02 0 0.955 0.02 0 0.96 0.02 0 0.965 0.02 0 0.97 0.02 0 0.975 0.02 0 0.98 0.02 0 0.985 0.02 0 0.99 0.02 0 0.995 0.02 0 1 0.02 0 0 0.04 0 0.005 0.04 0 0.01 0.04 0 0.015 0.04 0 0.02 0.04 0 0.025 0.04 0 0.03 0.04 0 0.035 0.04 0 0.04 0.04 0 0.045 0.04 0 0.05 0.04 0 0.055 0.04 0 0.06 0.04 0 0.065 0.04 0 0.07 0.04 0 0.075 0.04 0 0.08 0.04 0 0.085 0.04 0 0.09 0.04 0 0.095 0.04 0 0.1 0.04 0 0.105 0.04 0 0.11 0.04 0 0.115 0.04 0 0.12 0.04 0 0.125 0.04 0 0.13 0.04 0 0.135 0.04 0 0.14 0.04 0 0.145 0.04 0 0.15 0.04 0 0.155 0.04 0 0.16 0.04 0 0.165 0.04 0 0.17 0.04 0 0.175 0.04 0 0.18 0.04 0 0.185 0.04 0 0.19 0.04 0 0.195 0.04 0 0.2 0.04 0 0.205 0.04 0 0.21 0.04 0 0.215 0.04 0 0.22 0.04 0 0.225 0.04 0 0.23 0.04 0 0.235 0.04 0 0.24 0.04 0 0.245 0.04 0 0.25 0.04 0 0.255 0.04 0 0.26 0.04 0 0.265 0.04 0 0.27 0.04 0 0.275 0.04 0 0.28 0.04 0 0.285 0.04 0 0.29 0.04 0 0.295 0.04 0 0.3 0.04 0 0.305 0.04 0 0.31 0.04 0 0.315 0.04 0 0.32 0.04 0 0.325 0.04 0 0.33 0.04 0 0.335 0.04 0 0.34 0.04 0 0.345 0.04 0 0.35 0.04 0 0.355 0.04 0 0.36 0.04 0 0.365 0.04 0 0.37 0.04 0 0.375 0.04 0 0.38 0.04 0 0.385 0.04 0 0.39 0.04 0 0.395 0.04 0 0.4 0.04 0 0.405 0.04 0 0.41 0.04 0 0.415 0.04 0 0.42 0.04 0 0.425 0.04 0 0.43 0.04 0 0.435 0.04 0 0.44 0.04 0 0.445 0.04 0 0.45 0.04 0 0.455 0.04 0 0.46 0.04 0 0.465 0.04 0 0.47 0.04 0 0.475 0.04 0 0.48 0.04 0 0.485 0.04 0 0.49 0.04 0 0.495 0.04 0 0.5 0.04 0 0.505 0.04 0 0.51 0.04 0 0.515 0.04 0 0.52 0.04 0 0.525 0.04 0 0.53 0.04 0 0.535 0.04 0 0.54 0.04 0 0.545 0.04 0 0.55 0.04 0 0.555 0.04 0 0.56 0.04 0 0.565 0.04 0 0.57 0.04 0 0.575 0.04 0 0.58 0.04 0 0.585 0.04 0 0.59 0.04 0 0.595 0.04 0 0.6 0.04 0 0.605 0.04 0 0.61 0.04 0 0.615 0.04 0 0.62 0.04 0 0.625 0.04 0 0.63 0.04 0 0.635 0.04 0 0.64 0.04 0 0.645 0.04 0 0.65 0.04 0 0.655 0.04 0 0.66 0.04 0 0.665 0.04 0 0.67 0.04 0 0.675 0.04 0 0.68 0.04 0 0.685 0.04 0 0.69 0.04 0 0.695 0.04 0 0.7 0.04 0 0.705 0.04 0 0.71 0.04 0 0.715 0.04 0 0.72 0.04 0 0.725 0.04 0 0.73 0.04 0 0.735 0.04 0 0.74 0.04 0 0.745 0.04 0 0.75 0.04 0 0.755 0.04 0 0.76 0.04 0 0.765 0.04 0 0.77 0.04 0 0.775 0.04 0 0.78 0.04 0 0.785 0.04 0 0.79 0.04 0 0.795 0.04 0 0.8 0.04 0 0.805 0.04 0 0.81 0.04 0 0.815 0.04 0 0.82 0.04 0 0.825 0.04 0 0.83 0.04 0 0.835 0.04 0 0.84 0.04 0 0.845 0.04 0 0.85 0.04 0 0.855 0.04 0 0.86 0.04 0 0.865 0.04 0 0.87 0.04 0 0.875 0.04 0 0.88 0.04 0 0.885 0.04 0 0.89 0.04 0 0.895 0.04 0 0.9 0.04 0 0.905 0.04 0 0.91 0.04 0 0.915 0.04 0 0.92 0.04 0 0.925 0.04 0 0.93 0.04 0 0.935 0.04 0 0.94 0.04 0 0.945 0.04 0 0.95 0.04 0 0.955 0.04 0 0.96 0.04 0 0.965 0.04 0 0.97 0.04 0 0.975 0.04 0 0.98 0.04 0 0.985 0.04 0 0.99 0.04 0 0.995 0.04 0 1 0.04 0 0 0.06 0 0.005 0.06 0 0.01 0.06 0 0.015 0.06 0 0.02 0.06 0 0.025 0.06 0 0.03 0.06 0 0.035 0.06 0 0.04 0.06 0 0.045 0.06 0 0.05 0.06 0 0.055 0.06 0 0.06 0.06 0 0.065 0.06 0 0.07 0.06 0 0.075 0.06 0 0.08 0.06 0 0.085 0.06 0 0.09 0.06 0 0.095 0.06 0 0.1 0.06 0 0.105 0.06 0 0.11 0.06 0 0.115 0.06 0 0.12 0.06 0 0.125 0.06 0 0.13 0.06 0 0.135 0.06 0 0.14 0.06 0 0.145 0.06 0 0.15 0.06 0 0.155 0.06 0 0.16 0.06 0 0.165 0.06 0 0.17 0.06 0 0.175 0.06 0 0.18 0.06 0 0.185 0.06 0 0.19 0.06 0 0.195 0.06 0 0.2 0.06 0 0.205 0.06 0 0.21 0.06 0 0.215 0.06 0 0.22 0.06 0 0.225 0.06 0 0.23 0.06 0 0.235 0.06 0 0.24 0.06 0 0.245 0.06 0 0.25 0.06 0 0.255 0.06 0 0.26 0.06 0 0.265 0.06 0 0.27 0.06 0 0.275 0.06 0 0.28 0.06 0 0.285 0.06 0 0.29 0.06 0 0.295 0.06 0 0.3 0.06 0 0.305 0.06 0 0.31 0.06 0 0.315 0.06 0 0.32 0.06 0 0.325 0.06 0 0.33 0.06 0 0.335 0.06 0 0.34 0.06 0 0.345 0.06 0 0.35 0.06 0 0.355 0.06 0 0.36 0.06 0 0.365 0.06 0 0.37 0.06 0 0.375 0.06 0 0.38 0.06 0 0.385 0.06 0 0.39 0.06 0 0.395 0.06 0 0.4 0.06 0 0.405 0.06 0 0.41 0.06 0 0.415 0.06 0 0.42 0.06 0 0.425 0.06 0 0.43 0.06 0 0.435 0.06 0 0.44 0.06 0 0.445 0.06 0 0.45 0.06 0 0.455 0.06 0 0.46 0.06 0 0.465 0.06 0 0.47 0.06 0 0.475 0.06 0 0.48 0.06 0 0.485 0.06 0 0.49 0.06 0 0.495 0.06 0 0.5 0.06 0 0.505 0.06 0 0.51 0.06 0 0.515 0.06 0 0.52 0.06 0 0.525 0.06 0 0.53 0.06 0 0.535 0.06 0 0.54 0.06 0 0.545 0.06 0 0.55 0.06 0 0.555 0.06 0 0.56 0.06 0 0.565 0.06 0 0.57 0.06 0 0.575 0.06 0 0.58 0.06 0 0.585 0.06 0 0.59 0.06 0 0.595 0.06 0 0.6 0.06 0 0.605 0.06 0 0.61 0.06 0 0.615 0.06 0 0.62 0.06 0 0.625 0.06 0 0.63 0.06 0 0.635 0.06 0 0.64 0.06 0 0.645 0.06 0 0.65 0.06 0 0.655 0.06 0 0.66 0.06 0 0.665 0.06 0 0.67 0.06 0 0.675 0.06 0 0.68 0.06 0 0.685 0.06 0 0.69 0.06 0 0.695 0.06 0 0.7 0.06 0 0.705 0.06 0 0.71 0.06 0 0.715 0.06 0 0.72 0.06 0 0.725 0.06 0 0.73 0.06 0 0.735 0.06 0 0.74 0.06 0 0.745 0.06 0 0.75 0.06 0 0.755 0.06 0 0.76 0.06 0 0.765 0.06 0 0.77 0.06 0 0.775 0.06 0 0.78 0.06 0 0.785 0.06 0 0.79 0.06 0 0.795 0.06 0 0.8 0.06 0 0.805 0.06 0 0.81 0.06 0 0.815 0.06 0 0.82 0.06 0 0.825 0.06 0 0.83 0.06 0 0.835 0.06 0 0.84 0.06 0 0.845 0.06 0 0.85 0.06 0 0.855 0.06 0 0.86 0.06 0 0.865 0.06 0 0.87 0.06 0 0.875 0.06 0 0.88 0.06 0 0.885 0.06 0 0.89 0.06 0 0.895 0.06 0 0.9 0.06 0 0.905 0.06 0 0.91 0.06 0 0.915 0.06 0 0.92 0.06 0 0.925 0.06 0 0.93 0.06 0 0.935 0.06 0 0.94 0.06 0 0.945 0.06 0 0.95 0.06 0 0.955 0.06 0 0.96 0.06 0 0.965 0.06 0 0.97 0.06 0 0.975 0.06 0 0.98 0.06 0 0.985 0.06 0 0.99 0.06 0 0.995 0.06 0 1 0.06 0 0 0.08 0 0.005 0.08 0 0.01 0.08 0 0.015 0.08 0 0.02 0.08 0 0.025 0.08 0 0.03 0.08 0 0.035 0.08 0 0.04 0.08 0 0.045 0.08 0 0.05 0.08 0 0.055 0.08 0 0.06 0.08 0 0.065 0.08 0 0.07 0.08 0 0.075 0.08 0 0.08 0.08 0 0.085 0.08 0 0.09 0.08 0 0.095 0.08 0 0.1 0.08 0 0.105 0.08 0 0.11 0.08 0 0.115 0.08 0 0.12 0.08 0 0.125 0.08 0 0.13 0.08 0 0.135 0.08 0 0.14 0.08 0 0.145 0.08 0 0.15 0.08 0 0.155 0.08 0 0.16 0.08 0 0.165 0.08 0
[...]
			<CellData Scalars="Density">
				<DataArray Name="Density" type="Float32" format="ascii">
 1 1 1 1 1 1 1 1 1 1 1 1 1 1 1 1 1 1 1 1 1 1 1 1 1 1 1 1 1 1 1 1 1 1 1 1 1 1 1 1 1 1 1 1 1 1 1 1 1 0.999999 0.999998 0.999995 0.999986 0.999962 0.999899 0.999739 0.999353 0.998553 0.997071 0.994607 0.990863 0.985604 0.978689 0.97008 0.959843 0.948102 0.935038 0.920836 0.905695 0.889791 0.873287 0.856331 0.839058 0.821588 0.804037 0.786458 0.768958 0.751534 0.734312 0.717236 0.700429 0.683835 0.66754 0.651521 0.635815 0.620429 0.605391 0.590706 0.576365 0.562482 0.548936 0.535876 0.523273 0.511211 0.499658 0.488736 0.478505 0.469066 0.460425 0.452634 0.445831 0.440134 0.435451 0.431638 0.428698 0.426601 0.425121 0.424099 0.423473 0.423087 0.422779 0.422508 0.422255 0.422022 0.421786 0.421536 0.421229 0.420786 0.420052 0.418742 0.416391 0.412312 0.405593 0.395174 0.38006 0.359676 0.334005 0.307074 0.290102 0.279277 0.272904 0.269452 0.267752 0.267013 0.266752 0.266705 0.266732 0.266767 0.266806 0.266821 0.266832 0.266832 0.266833 0.266793 0.266747 0.266398 0.265983 0.263702 0.259624 0.246015 0.219762 0.169714 0.133607 0.126378 0.125211 0.125032 0.125005 0.125001 0.125 0.125 0.125 0.125 0.125 0.125 0.125 0.125 0.125 0.125 0.125 0.125 0.125 0.125 0.125 0.125 0.125 0.125 0.125 0.125 0.125 0.125 0.125 0.125 0.125 0.125 0.125 0.125 0.125 0.125 0.125 0.125 0.125 0.125 0.125 0.125 0.125 0.125 0.125 0.125 0.125 0.125 1 1 1 1 1 1 1 1 1 1 1 1 1 1 1 1 1 1 1 1 1 1 1 1 1 1 1 1 1 1 1 1 1 1 1 1 1 1 1 1 1 1 1 1 1 1 1 1 1 0.999999 0.999998 0.999995 0.999986 0.999962 0.999899 0.999739 0.999353 0.998553 0.997071 0.994607 0.990863 0.985604 0.978689 0.97008 0.959843 0.948102 0.935038 0.920836 0.905695 0.889791 0.873287 0.856331 0.839058 0.821588 0.804037 0.786458 0.768958 0.751534 0.734312 0.717236 0.700429 0.683835 0.66754 0.651521 0.635815 0.620429 0.605391 0.590706 0.576365 0.562482 0.548936 0.535876 0.523273 0.511211 0.499658 0.488736 0.478505 0.469066 0.460425 0.452634 0.445831 0.440134 0.435451 0.431638 0.428698 0.426601 0.425121 0.424099 0.423473 0.423087 0.422779 0.422508 0.422255 0.422022 0.421786 0.421536 0.421229 0.420786 0.420052 0.418742 0.416391 0.412312 0.405593 0.395174 0.38006 0.359676 0.334005 0.307074 0.290102 0.279277 0.272904 0.269452 0.267752 0.267013 0.266752 0.266705 0.266732 0.266767 0.266806 0.266821 0.266832 0.266832 0.266833 0.266793 0.266747 0.266398 0.265983 0.263702 0.259624 0.246015 0.219762 0.169714 0.133607 0.126378 0.125211 0.125032 0.125005 0.125001 0.125 0.125 0.125 0.125 0.125 0.125 0.125 0.125 0.125 0.125 0.125 0.125 0.125 0.125 0.125 0.125 0.125 0.125 0.125 0.125 0.125 0.125 0.125 0.125 0.125 0.125 0.125 0.125 0.125 0.125 0.125 0.125 0.125 0.125 0.125 0.125 0.125 0.125 0.125 0.125 0.125 0.125 1 1 1 1 1 1 1 1 1 1 1 1 1 1 1 1 1 1 1 1 1 1 1 1 1 1 1 1 1 1 1 1 1 1 1 1 1 1 1 1 1 1 1 1 1 1 1 1 1 0.999999 0.999998 0.999995 0.999986 0.999962 0.999899 0.999739 0.999353 0.998553 0.997071 0.994607 0.990863 0.985604 0.978689 0.97008 0.959843 0.948102 0.935038 0.920836 0.905695 0.889791 0.873287 0.856331 0.839058 0.821588 0.804037 0.786458 0.768958 0.751534 0.734312 0.717236 0.700429 0.683835 0.66754 0.651521 0.635815 0.620429 0.605391 0.590706 0.576365 0.562482 0.548936 0.535876 0.523273 0.511211 0.499658 0.488736 0.478505 0.469066 0.460425 0.452634 0.445831 0.440134 0.435451 0.431638 0.428698 0.426601 0.425121 0.424099 0.423473 0.423087 0.422779 0.422508 0.422255 0.422022 0.421786 0.421536 0.421229 0.420786 0.420052 0.418742 0.416391 0.412312 0.405593 0.395174 0.38006 0.359676 0.334005 0.307074 0.290102 0.279277 0.272904 0.269452 0.267752 0.267013 0.266752 0.266705 0.266732 0.266767 0.266806 0.266821 0.266832 0.266832 0.266833 0.266793 0.266747 0.266398 0.265983 0.263702 0.259624 0.246015 0.219762 0.169714 0.133607 0.126378 0.125211 0.125032 0.125005 0.125001 0.125 0.125 0.125 0.125 0.125 0.125 0.125 0.125 0.125 0.125 0.125 0.125 0.125 0.125 0.125 0.125 0.125 0.125 0.125 0.125 0.125 0.125 0.125 0.125 0.125 0.125 0.125 0.125 0.125 0.125 0.125 0.125 0.125 0.125 0.125 0.125 0.125 0.125 0.125 0.125 0.125 0.125 1 1 1 1 1 1 1 1 1 1 1 1 1 1 1 1 1 1 1 1 1 1 1 1 1 1 1 1 1 1 1 1 1 1 1 1 1 1 1 1 1 1 1 1 1 1 1 1 1 0.999999 0.999998 0.999995 0.999986 0.999962 0.999899 0.999739 0.999353 0.998553 0.997071 0.994607 0.990863 0.985604 0.978689 0.97008 0.959843 0.948102 0.935038 0.920836 0.905695 0.889791 0.873287 0.856331 0.839058 0.821588 0.804037 0.786458 0.768958 0.751534 0.734312 0.717236 0.700429 0.683835 0.66754 0.651521 0.635815 0.620429 0.605391 0.590706 0.576365 0.562482 0.548936 0.535876 0.523273 0.511211 0.499658 0.488736 0.478505 0.469066 0.460425 0.452634 0.445831 0.440134 0.435451 0.431638 0.428698 0.426601 0.425121 0.424099 0.423473 0.423087 0.422779 0.422508 0.422255 0.422022 0.421786 0.421536 0.421229 0.420786 0.420052 0.418742 0.416391 0.412312 0.405593 0.395174 0.38006 0.359676 0.334005 0.307074 0.290102 0.279277 0.272904 0.269452 0.267752 0.267013 0.266752 0.266705 0.266732 0.266767 0.266806 0.266821 0.266832 0.266832 0.266833 0.266793 0.266747 0.266398 0.265983 0.263702 0.259624 0.246015 0.219762 0.169714 0.133607 0.126378 0.125211 0.125032 0.125005 0.125001 0.125 0.125 0.125 0.125 0.125 0.125 0.125 0.125 0.125 0.125 0.125 0.125 0.125 0.125 0.125 0.125 0.125 0.125 0.125 0.125 0.125 0.125 0.125 0.125 0.125 0.125 0.125 0.125 0.125 0.125 0.125 0.125 0.125 0.125 0.125 0.125 0.125 0.125 0.125 0.125 0.125 0.125 1 1 1 1 1 1 1 1 1 1 1 1 1 1 1 1 1 1 1 1 1 1 1 1 1 1 1 1 1 1 1 1 1 1 1 1 1 1 1 1 1 1 1 1 1 1 1 1 1 0.999999 0.999998 0.999995 0.999986 0.999962 0.999899 0.999739 0.999353 0.998553 0.997071 0.994607 0.990863 0.985604 0.978689 0.97008 0.959843 0.948102 0.935038 0.920836 0.905695 0.889791 0.873287 0.856331 0.839058 0.821588 0.804037 0.786458 0.768958 0.751534 0.734312 0.717236 0.700429 0.683835 0.66754 0.651521 0.635815 0.620429 0.605391 0.590706 0.576365 0.562482 0.548936 0.535876 0.523273 0.511211 0.499658 0.488736 0.478505 0.469066 0.460425 0.452634 0.445831 0.440134 0.435451 0.431638 0.428698 0.426601 0.425121 0.424099 0.423473 0.423087 0.422779 0.422508 0.422255 0.422022 0.421786 0.421536 0.421229 0.420786 0.420052 0.418742 0.416391 0.412312 0.405593 0.395174 0.38006 0.359676 0.334005 0.307074 0.290102 0.279277 0.272904 0.269452 0.267752 0.267013 0.266752 0.266705 0.266732 0.266767 0.266806 0.266821 0.266832 0.266832 0.266833 0.266793 0.266747 0.266398 0.265983 0.263702 0.259624 0.246015 0.219762 0.169714 0.133607 0.126378 0.125211 0.125032 0.125005 0.125001 0.125 0.125 0.125 0.125 0.125 0.125 0.125 0.125 0.125 0.125 0.125 0.125 0.125 0.125 0.125 0.125 0.125 0.125 0.125 0.125 0.125 0.125 0.125 0.125 0.125 0.125 0.125 0.125 0.125 0.125 0.125 0.125 0.125 0.125 0.125 0.125 0.125 0.125 0.125 0.125 0.125 0.125
				</DataArray>
				<DataArray Name="Energy" type="Float32" format="ascii">
 2.5 2.5 2.5 2.5 2.5 2.5 2.5 2.5 2.5 2.5 2.5 2.5 2.5 2.5 2.5 2.5 2.5 2.5 2.5 2.5 2.5 2.5 2.5 2.5 2.5 2.5 2.5 2.5 2.5 2.5 2.5 2.5 2.5 2.5 2.5 2.5 2.5 2.5 2.5 2.5 2.5 2.5 2.5 2.5 2.5 2.5 2.5 2.5 2.5 2.5 2.5 2.49999 2.49999 2.49996 2.4999 2.49974 2.49935 2.49855 2.49707 2.4946 2.49085 2.48557 2.47861 2.46991 2.45951 2.44752 2.43408 2.41937 2.40354 2.38675 2.36916 2.35088 2.33205 2.31277 2.29315 2.27324 2.25319 2.23296 2.21269 2.19233 2.17201 2.15167 2.13142 2.11123 2.09113 2.07126 2.05137 2.03188 2.01248 1.99336 1.97457 1.9562 1.93812 1.9206 1.90371 1.88759 1.87218 1.85765 1.84436 1.83263 1.82228 1.8131 1.80551 1.79992 1.79587 1.79282 1.79088 1.7899 1.78931 1.78905 1.78938 1.79021 1.79124 1.7923 1.79341 1.79456 1.79593 1.79784 1.80098 1.80661 1.8168 1.83478 1.86519 1.91439 1.9905 2.10343 2.26337 2.46095 2.60759 2.70877 2.77208 2.80756 2.82535 2.83313 2.83584 2.8363 2.83596 2.83541 2.83495 2.83455 2.83425 2.83402 2.83376 2.83339 2.83309 2.83154 2.82974 2.81995 2.80196 2.74034 2.60337 2.3055 2.05822 2.0089 2.00135 2.00021 2.00003 2 2 2 2 2 2 2 2 2 2 2 2 2 2 2 2 2 2 2 2 2 2 2 2 2 2 2 2 2 2 2 2 2 2 2 2 2 2 2 2 2 2 2 2.5 2.5 2.5 2.5 2.5 2.5 2.5 2.5 2.5 2.5 2.5 2.5 2.5 2.5 2.5 2.5 2.5 2.5 2.5 2.5 2.5 2.5 2.5 2.5 2.5 2.5 2.5 2.5 2.5 2.5 2.5 2.5 2.5 2.5 2.5 2.5 2.5 2.5 2.5 2.5 2.5 2.5 2.5 2.5 2.5 2.5 2.5 2.5 2.5 2.5 2.5 2.49999 2.49999 2.49996 2.4999 2.49974 2.49935 2.49855 2.49707 2.4946 2.49085 2.48557 2.47861 2.46991 2.45951 2.44752 2.43408 2.41937 2.40354 2.38675 2.36916 2.35088 2.33205 2.31277 2.29315 2.27324 2.25319 2.23296 2.21269 2.19233 2.17201 2.15167 2.13142 2.11123 2.09113 2.07126 2.05137 2.03188 2.01248 1.99336 1.97457 1.9562 1.93812 1.9206 1.90371 1.88759 1.87218 1.85765 1.84436 1.83263 1.82228 1.8131 1.80551 1.79992 1.79587 1.79282 1.79088 1.7899 1.78931 1.78905 1.78938 1.79021 1.79124 1.7923 1.79341 1.79456 1.79593 1.79784 1.80098 1.80661 1.8168 1.83478 1.86519 1.91439 1.9905 2.10343 2.26337 2.46095 2.60759 2.70877 2.77208 2.80756 2.82535 2.83313 2.83584 2.8363 2.83596 2.83541 2.83495 2.83455 2.83425 2.83402 2.83376 2.83339 2.83309 2.83154 2.82974 2.81995 2.80196 2.74034 2.60337 2.3055 2.05822 2.0089 2.00135 2.00021 2.00003 2 2 2 2 2 2 2 2 2 2 2 2 2 2 2 2 2 2 2 2 2 2 2 2 2 2 2 2 2 2 2 2 2 2 2 2 2 2 2 2 2 2 2 2.5 2.5 2.5 2.5 2.5 2.5 2.5 2.5 2.5 2.5 2.5 2.5 2.5 2.5 2.5 2.5 2.5 2.5 2.5 2.5 2.5 2.5 2.5 2.5 2.5 2.5 2.5 2.5 2.5 2.5 2.5 2.5 2.5 2.5 2.5 2.5 2.5 2.5 2.5 2.5 2.5 2.5 2.5 2.5 2.5 2.5 2.5 2.5 2.5 2.5 2.5 2.49999 2.49999 2.49996 2.4999 2.49974 2.49935 2.49855 2.49707 2.4946 2.49085 2.48557 2.47861 2.46991 2.45951 2.44752 2.43408 2.41937 2.40354 2.38675 2.36916 2.35088 2.33205 2.31277 2.29315 2.27324 2.25319 2.23296 2.21269 2.19233 2.17201 2.15167 2.13142 2.11123 2.09113 2.07126 2.05137 2.03188 2.01248 1.99336 1.97457 1.9562 1.93812 1.9206 1.90371 1.88759 1.87218 1.85765 1.84436 1.83263 1.82228 1.8131 1.80551 1.79992 1.79587 1.79282 1.79088 1.7899 1.78931 1.78905 1.78938 1.79021 1.79124 1.7923 1.79341 1.79456 1.79593 1.79784 1.80098 1.80661 1.8168 1.83478 1.86519 1.91439 1.9905 2.10343 2.26337 2.46095 2.60759 2.70877 2.77208 2.80756 2.82535 2.83313 2.83584 2.8363 2.83596 2.83541 2.83495 2.83455 2.83425 2.83402 2.83376 2.83339 2.83309 2.83154 2.82974 2.81995 2.80196 2.74034 2.60337 2.3055 2.05822 2.0089 2.00135 2.00021 2.00003 2 2 2 2 2 2 2 2 2 2 2 2 2 2 2 2 2 2 2 2 2 2 2 2 2 2 2 2 2 2 2 2 2 2 2 2 2 2 2 2 2 2 2 2.5 2.5 2.5 2.5 2.5 2.5 2.5 2.5 2.5 2.5 2.5 2.5 2.5 2.5 2.5 2.5 2.5 2.5 2.5 2.5 2.5 2.5 2.5 2.5 2.5 2.5 2.5 2.5 2.5 2.5 2.5 2.5 2.5 2.5 2.5 2.5 2.5 2.5 2.5 2.5 2.5 2.5 2.5 2.5 2.5 2.5 2.5 2.5 2.5 2.5 2.5 2.49999 2.49999 2.49996 2.4999 2.49974 2.49935 2.49855 2.49707 2.4946 2.49085 2.48557 2.47861 2.46991 2.45951 2.44752 2.43408 2.41937 2.40354 2.38675 2.36916 2.35088 2.33205 2.31277 2.29315 2.27324 2.25319 2.23296 2.21269 2.19233 2.17201 2.15167 2.13142 2.11123 2.09113 2.07126 2.05137 2.03188 2.01248 1.99336 1.97457 1.9562 1.93812 1.9206 1.90371 1.88759 1.87218 1.85765 1.84436 1.83263 1.82228 1.8131 1.80551 1.79992 1.79587 1.79282 1.79088 1.7899 1.78931 1.78905 1.78938 1.79021 1.79124 1.7923 1.79341 1.79456 1.79593 1.79784 1.80098 1.80661 1.8168 1.83478 1.86519 1.91439 1.9905 2.10343 2.26337 2.46095 2.60759 2.70877 2.77208 2.80756 2.82535 2.83313 2.83584 2.8363 2.83596 2.83541 2.83495 2.83455 2.83425 2.83402 2.83376 2.83339 2.83309 2.83154 2.82974 2.81995 2.80196 2.74034 2.60337 2.3055 2.05822 2.0089 2.00135 2.00021 2.00003 2 2 2 2 2 2 2 2 2 2 2 2 2 2 2 2 2 2 2 2 2 2 2 2 2 2 2 2 2 2 2 2 2 2 2 2 2 2 2 2 2 2 2 2.5 2.5 2.5 2.5 2.5 2.5 2.5 2.5 2.5 2.5 2.5 2.5 2.5 2.5 2.5 2.5 2.5 2.5 2.5 2.5 2.5 2.5 2.5 2.5 2.5 2.5 2.5 2.5 2.5 2.5 2.5 2.5 2.5 2.5 2.5 2.5 2.5 2.5 2.5 2.5 2.5 2.5 2.5 2.5 2.5 2.5 2.5 2.5 2.5 2.5 2.5 2.49999 2.49999 2.49996 2.4999 2.49974 2.49935 2.49855 2.49707 2.4946 2.49085 2.48557 2.47861 2.46991 2.45951 2.44752 2.43408 2.41937 2.40354 2.38675 2.36916 2.35088 2.33205 2.31277 2.29315 2.27324 2.25319 2.23296 2.21269 2.19233 2.17201 2.15167 2.13142 2.11123 2.09113 2.07126 2.05137 2.03188 2.01248 1.99336 1.97457 1.9562 1.93812 1.9206 1.90371 1.88759 1.87218 1.85765 1.84436 1.83263 1.82228 1.8131 1.80551 1.79992 1.79587 1.79282 1.79088 1.7899 1.78931 1.78905 1.78938 1.79021 1.79124 1.7923 1.79341 1.79456 1.79593 1.79784 1.80098 1.80661 1.8168 1.83478 1.86519 1.91439 1.9905 2.10343 2.26337 2.46095 2.60759 2.70877 2.77208 2.80756 2.82535 2.83313 2.83584 2.8363 2.83596 2.83541 2.83495 2.83455 2.83425 2.83402 2.83376 2.83339 2.83309 2.83154 2.82974 2.81995 2.80196 2.74034 2.60337 2.3055 2.05822 2.0089 2.00135 2.00021 2.00003 2 2 2 2 2 2 2 2 2 2 2 2 2 2 2 2 2 2 2 2 2 2 2 2 2 2 2 2 2 2 2 2 2 2 2 2 2 2 2 2 2 2 2
				</DataArray>
				<DataArray Name="F1" type="Float32" format="ascii">
 1 1 1 1 1 1 1 1 1 1 1 1 1 1 1 1 1 1 1 1 1 1 1 1 1 1 1 1 1 1 1 1 1 1 1 1 1 1 1 1 1 1 1 1 1 1 1 1 1 1 1 1 1 1 1 1 1 1 1 1 1 1 1 1 1 1 1 1 1 1 1 1 1 1 1 1 1 1 1 1 1 1 1 1 1 1 1 1 1 1 1 1 1 1 1 1 1 1 1 1 1 1 1 1 1 1 1 1 1 1 0.999999 0.999998 0.999992 0.999971 0.999909 0.99973 0.999259 0.9981 0.995443 0.989768 0.978466 0.957479 0.921158 0.862632 0.774985 0.653338 0.497555 0.328708 0.201642 0.116776 0.0640489 0.0333567 0.0165311 0.00780997 0.00352271 0.00151883 0.000626525 0.000247418 9.35663e-05 3.38807e-05 1.17409e-05 3.88922e-06 1.22897e-06 3.69204e-07 1.04879e-07 2.79213e-08 6.8688e-09 1.5208e-09 2.91215e-10 4.41297e-11 4.59454e-12 2.30987e-13 2.00667e-15 0 0 0 0 0 0 0 0 0 0 0 0 0 0 0 0 0 0 0 0 0 0 0 0 0 0 0 0 0 0 0 0 0 0 0 0 0 0 0 0 0 0 0 0 0 0 0 1 1 1 1 1 1 1 1 1 1 1 1 1 1 1 1 1 1 1 1 1 1 1 1 1 1 1 1 1 1 1 1 1 1 1 1 1 1 1 1 1 1 1 1 1 1 1 1 1 1 1 1 1 1 1 1 1 1 1 1 1 1 1 1 1 1 1 1 1 1 1 1 1 1 1 1 1 1 1 1 1 1 1 1 1 1 1 1 1 1 1 1 1 1 1 1 1 1 1 1 1 1 1 1 1 1 1 1 1 1 0.999999 0.999998 0.999992 0.999971 0.999909 0.99973 0.999259 0.9981 0.995443 0.989768 0.978466 0.957479 0.921158 0.862632 0.774985 0.653338 0.497555 0.328708 0.201642 0.116776 0.0640489 0.0333567 0.0165311 0.00780997 0.00352271 0.00151883 0.000626525 0.000247418 9.35663e-05 3.38807e-05 1.17409e-05 3.88922e-06 1.22897e-06 3.69204e-07 1.04879e-07 2.79213e-08 6.8688e-09 1.5208e-09 2.91215e-10 4.41297e-11 4.59454e-12 2.30987e-13 2.00667e-15 0 0 0 0 0 0 0 0 0 0 0 0 0 0 0 0 0 0 0 0 0 0 0 0 0 0 0 0 0 0 0 0 0 0 0 0 0 0 0 0 0 0 0 0 0 0 0 1 1 1 1 1 1 1 1 1 1 1 1 1 1 1 1 1 1 1 1 1 1 1 1 1 1 1 1 1 1 1 1 1 1 1 1 1 1 1 1 1 1 1 1 1 1 1 1 1 1 1 1 1 1 1 1 1 1 1 1 1 1 1 1 1 1 1 1 1 1 1 1 1 1 1 1 1 1 1 1 1 1 1 1 1 1 1 1 1 1 1 1 1 1 1 1 1 1 1 1 1 1 1 1 1 1 1 1 1 1 0.999999 0.999998 0.999992 0.999971 0.999909 0.99973 0.999259 0.9981 0.995443 0.989768 0.978466 0.957479 0.921158 0.862632 0.774985 0.653338 0.497555 0.328708 0.201642 0.116776 0.0640489 0.0333567 0.0165311 0.00780997 0.00352271 0.00151883 0.000626525 0.000247418 9.35663e-05 3.38807e-05 1.17409e-05 3.88922e-06 1.22897e-06 3.69204e-07 1.04879e-07 2.79213e-08 6.8688e-09 1.5208e-09 2.91215e-10 4.41297e-11 4.59454e-12 2.30987e-13 2.00667e-15 0 0 0 0 0 0 0 0 0 0 0 0 0 0 0 0 0 0 0 0 0 0 0 0 0 0 0 0 0 0 0 0 0 0 0 0 0 0 0 0 0 0 0 0 0 0 0 1 1 1 1 1 1 1 1 1 1 1 1 1 1 1 1 1 1 1 1 1 1 1 1 1 1 1 1 1 1 1 1 1 1 1 1 1 1 1 1 1 1 1 1 1 1 1 1 1 1 1 1 1 1 1 1 1 1 1 1 1 1 1 1 1 1 1 1 1 1 1 1 1 1 1 1 1 1 1 1 1 1 1 1 1 1 1 1 1 1 1 1 1 1 1 1 1 1 1 1 1 1 1 1 1 1 1 1 1 1 0.999999 0.999998 0.999992 0.999971 0.999909 0.99973 0.999259 0.9981 0.995443 0.989768 0.978466 0.957479 0.921158 0.862632 0.774985 0.653338 0.497555 0.328708 0.201642 0.116776 0.0640489 0.0333567 0.0165311 0.00780997 0.00352271 0.00151883 0.000626525 0.000247418 9.35663e-05 3.38807e-05 1.17409e-05 3.88922e-06 1.22897e-06 3.69204e-07 1.04879e-07 2.79213e-08 6.8688e-09 1.5208e-09 2.91215e-10 4.41297e-11 4.59454e-12 2.30987e-13 2.00667e-15 0 0 0 0 0 0 0 0 0 0 0 0 0 0 0 0 0 0 0 0 0 0 0 0 0 0 0 0 0 0 0 0 0 0 0 0 0 0 0 0 0 0 0 0 0 0 0 1 1 1 1 1 1 1 1 1 1 1 1 1 1 1 1 1 1 1 1 1 1 1 1 1 1 1 1 1 1 1 1 1 1 1 1 1 1 1 1 1 1 1 1 1 1 1 1 1 1 1 1 1 1 1 1 1 1 1 1 1 1 1 1 1 1 1 1 1 1 1 1 1 1 1 1 1 1 1 1 1 1 1 1 1 1 1 1 1 1 1 1 1 1 1 1 1 1 1 1 1 1 1 1 1 1 1 1 1 1 0.999999 0.999998 0.999992 0.999971 0.999909 0.99973 0.999259 0.9981 0.995443 0.989768 0.978466 0.957479 0.921158 0.862632 0.774985 0.653338 0.497555 0.328708 0.201642 0.116776 0.0640489 0.0333567 0.0165311 0.00780997 0.00352271 0.00151883 0.000626525 0.000247418 9.35663e-05 3.38807e-05 1.17409e-05 3.88922e-06 1.22897e-06 3.69204e-07 1.04879e-07 2.79213e-08 6.8688e-09 1.5208e-09 2.91215e-10 4.41297e-11 4.59454e-12 2.30987e-13 2.00667e-15 0 0 0 0 0 0 0 0 0 0 0 0 0 0 0 0 0 0 0 0 0 0 0 0 0 0 0 0 0 0 0 0 0 0 0 0 0 0 0 0 0 0 0 0 0 0 0
				</DataArray>
				<DataArray Name="F2" type="Float32" format="ascii">