<?xml version="1.0"?>
<VTKFile type="PolyData">
	<PolyData>
		<Piece NumberOfPoints="1206" NumberOfPolys="1000">
			<Points>
				<DataArray type="Float32" NumberOfComponents="3" format="ascii">
 0 0 0 0.005 0 0 0.01 0 0 0.015 0 0 0.02 0 0 0.025 0 0 0.03 0 0 0.035 0 0 0.04 0 0 0.045 0 0 0.05 0 0 0.055 0 0 0.06 0 0 0.065 0 0 0.07 0 0 0.075 0 0 0.08 0 0 0.085 0 0 0.09 0 0 0.095 0 0 0.1 0 0 0.105 0 0 0.11 0 0 0.115 0 0 0.12 0 0 0.125 0 0 0.13 0 0 0.135 0 0 0.14 0 0 0.145 0 0 0.15 0 0 0.155 0 0 0.16 0 0 0.165 0 0 0.17 0 0 0.175 0 0 0.18 0 0 0.185 0 0 0.19 0 0 0.195 0 0 0.2 0 0 0.205 0 0 0.21 0 0 0.215 0 0 0.22 0 0 0.225 0 0 0.23 0 0 0.235 0 0 0.24 0 0 0.245 0 0 0.25 0 0 0.255 0 0 0.26 0 0 0.265 0 0 0.27 0 0 0.275 0 0 0.28 0 0 0.285 0 0 0.29 0 0 0.295 0 0 0.3 0 0 0.305 0 0 0.31 0 0 0.315 0 0 0.32 0 0 0.325 0 0 0.33 0 0 0.335 0 0 0.34 0 0 0.345 0 0 0.35 0 0 0.355 0 0 0.36 0 0 0.365 0 0 0.37 0 0 0.375 0 0 0.38 0 0 0.385 0 0 0.39 0 0 0.395 0 0 0.4 0 0 0.405 0 0 0.41 0 0 0.415 0 0 0.42 0 0 0.425 0 0 0.43 0 0 0.435 0 0 0.44 0 0 0.445 0 0 0.45 0 0 0.455 0 0 0.46 0 0 0.465 0 0 0.47 0 0 0.475 0 0 0.48 0 0 0.485 0 0 0.49 0 0 0.495 0 0 0.5 0 0 0.505 0 0 0.51 0 0 0.515 0 0 0.52 0 0 0.525 0 0 0.53 0 0 0.535 0 0 0.54 0 0 0.545 0 0 0.55 0 0 0.555 0 0 0.56 0 0 0.565 0 0 0.57 0 0 0.575 0 0 0.58 0 0 0.585 0 0 0.59 0 0 0.595 0 0 0.6 0 0 0.605 0 0 0.61 0 0 0.615 0 0 0.62 0 0 0.625 0 0 0.63 0 0 0.635 0 0 0.64 0 0 0.645 0 0 0.65 0 0 0.655 0 0 0.66 0 0 0.665 0 0 0.67 0 0 0.675 0 0 0.68 0 0 0.685 0 0 0.69 0 0 0.695 0 0 0.7 0 0 0.705 0 0 0.71 0 0 0.715 0 0 0.72 0 0 0.725 0 0 0.73 0 0 0.735 0 0 0.74 0 0 0.745 0 0 0.75 0 0 0.755 0 0 0.76 0 0 0.765 0 0 0.77 0 0 0.775 0 0 0.78 0 0 0.785 0 0 0.79 0 0 0.795 0 0 0.8 0 0 0.805 0 0 0.81 0 0 0.815 0 0 0.82 0 0 0.825 0 0 0.83 0 0 0.835 0 0 0.84 0 0 0.845 0 0 0.85 0 0 0.855 0 0 0.86 0 0 0.865 0 0 0.87 0 0 0.875 0 0 0.88 0 0 0.885 0 0 0.89 0 0 0.895 0 0 0.9 0 0 0.905 0 0 0.91 0 0 0.915 0 0 0.92 0 0 0.925 0 0 0.93 0 0 0.935 0 0 0.94 0 0 0.945 0 0 0.95 0 0 0.955 0 0 0.96 0 0 0.965 0 0 0.97 0 0 0.975 0 0 0.98 0 0 0.985 0 0 0.99 0 0 0.995 0 0 1 0 0 0 0.02 0 0.005 0.02 0 0.01 0.02 0 0.015 0.02 0 0.02 0.02 0 0.025 0.02 0 0.03 0.02 0 0.035 0.02 0 0.04 0.02 0 0.045 0.02 0 0.05 0.02 0 0.055 0.02 0 0.06 0.02 0 0.065 0.02 0 0.07 0.02 0 0.075 0.02 0 0.08 0.02 0 0.085 0.02 0 0.09 0.02 0 0.095 0.02 0 0.1 0.02 0 0.105 0.02 0 0.11 0.02 0 0.115 0.02 0 0.12 0.02 0 0.125 0.02 0 0.13 0.02 0 0.135 0.02 0 0.14 0.02 0 0.145 0.02 0 0.15 0.02 0 0.155 0.02 0 0.16 0.02 0 0.165 0.02 0 0.17 0.02 0 0.175 0.02 0 0.18 0.02 0 0.185 0.02 0 0.19 0.02 0 0.195 0.02 0 0.2 0.02 0 0.205 0.02 0 0.21 0.02 0 0.215 0.02 0 0.22 0.02 0 0.225 0.02 0 0.23 0.02 0 0.235 0.02 0 0.24 0.02 0 0.245 0.02 0 0.25 0.02 0 0.255 0.02 0 0.26 0.02 0 0.265 0.02 0 0.27 0.02 0 0.275 0.02 0 0.28 0.02 0 0.285 0.02 0 0.29 0.02 0 0.295 0.02 0 0.3 0.02 0 0.305 0.02 0 0.31 0.02 0 0.315 0.02 0 0.32 0.02 0 0.325 0.02 0 0.33 0.02 0 0.335 0.02 0 0.34 0.02 0 0.345 0.02 0 0.35 0.02 0 0.355 0.02 0 0.36 0.02 0 0.365 0.02 0 0.37 0.02 0 0.375 0.02 0 0.38 0.02 0 0.385 0.02 0 0.39 0.02 0 0.395 0.02 0 0.4 0.02 0 0.405 0.02 0 0.41 0.02 0 0.415 0.02 0 0.42 0.02 0 0.425 0.02 0 0.43 0.02 0 0.435 0.02 0 0.44 0.02 0 0.445 0.02 0 0.45 0.02 0 0.455 0.02 0 0.46 0.02 0 0.465 0.02 0 0.47 0.02 0 0.475 0.02 0 0.48 0.02 0 0.485 0.02 0 0.49 0.02 0 0.495 0.02 0 0.5 0.02 0 0.505 0.02 0 0.51 0.02 0 0.515 0.02 0 0.52 0.02 0 0.525 0.02 0 0.53 0.02 0 0.535 0.02 0 0.54 0.02 0 0.545 0.02 0 0.55 0.02 0 0.555 0.02 0 0.56 0.02 0 0.565 0.02 0 0.57 0.02 0 0.575 0.02 0 0.58 0.02 0 0.585 0.02 0 0.59 0.02 0 0.595 0.02 0 0.6 0.02 0 0.605 0.02 0 0.61 0.02 0 0.615 0.02 0 0.62 0.02 0 0.625 0.02 0 0.63 0.02 0 0.635 0.02 0 0.64 0.02 0 0.645 0.02 0 0.65 0.02 0 0.655 0.02 0 0.66 0.02 0 0.665 0.02 0 0.67 0.02 0 0.675 0.02 0 0.68 0.02 0 0.685 0.02 0 0.69 0.02 0 0.695 0.02 0 0.7 0.02 0 0.705 0.02 0 0.71 0.02 0 0.715 0.02 0 0.72 0.02 0 0.725 0.02 0 0.73 0.02 0 0.735 0.02 0 0.74 0.02 0 0.745 0.02 0 0.75 0.02 0 0.755 0.02 0 0.76 0.02 0 0.765 0.02 0 0.77 0.02 0 0.775 0.02 0 0.78 0.02 0 0.785 0.02 0 0.79 0.02 0 0.795 0.02 0 0.8 0.02 0 0.805 0.02 0 0.81 0.02 0 0.815 0.02 0 0.82 0.02 0 0.825 0.02 0 0.83 0.02 0 0.835 0.02 0 0.84 0.02 0 0.845 0.02 0 0.85 0.02 0 0.855 0.02 0 0.86 0.02 0 0.865 0.02 0 0.87 0.02 0 0.875 0.02 0 0.88 0.02 0 0.885 0.02 0 0.89 0.02 0 0.895 0.02 0 0.9 0.02 0 0.905 0.02 0 0.91 0.02 0 0.915 0.02 0 0.92 0.02 0 0.925 0.02 0 0.93 0.02 0 0.935 0.02 0 0.94 0.02 0 0.945 0.02 0 0.95 0.02 0 0.955 0.02 0 0.96 0.02 0 0.965 0.02 0 0.97 0.02 0 0.975 0.02 0 0.98 0.02 0 0.985 0.02 0 0.99 0.02 0 0.995 0.02 0 1 0.02 0 0 0.04 0 0.005 0.04 0 0.01 0.04 0 0.015 0.04 0 0.02 0.04 0 0.025 0.04 0 0.03 0.04 0 0.035 0.04 0 0.04 0.04 0 0.045 0.04 0 0.05 0.04 0 0.055 0.04 0 0.06 0.04 0 0.065 0.04 0 0.07 0.04 0 0.075 0.04 0 0.08 0.04 0 0.085 0.04 0 0.09 0.04 0 0.095 0.04 0 0.1 0.04 0 0.105 0.04 0 0.11 0.04 0 0.115 0.04 0 0.12 0.04 0 0.125 0.04 0 0.13 0.04 0 0.135 0.04 0 0.14 0.04 0 0.145 0.04 0 0.15 0.04 0 0.155 0.04 0 0.16 0.04 0 0.165 0.04 0 0.17 0.04 0 0.175 0.04 0 0.18 0.04 0 0.185 0.04 0 0.19 0.04 0 0.195 0.04 0 0.2 0.04 0 0.205 0.04 0 0.21 0.04 0 0.215 0.04 0 0.22 0.04 0 0.225 0.04 0 0.23 0.04 0 0.235 0.04 0 0.24 0.04 0 0.245 0.04 0 0.25 0.04 0 0.255 0.04 0 0.26 0.04 0 0.265 0.04 0 0.27 0.04 0 0.275 0.04 0 0.28 0.04 0 0.285 0.04 0 0.29 0.04 0 0.295 0.04 0 0.3 0.04 0 0.305 0.04 0 0.31 0.04 0 0.315 0.04 0 0.32 0.04 0 0.325 0.04 0 0.33 0.04 0 0.335 0.04 0 0.34 0.04 0 0.345 0.04 0 0.35 0.04 0 0.355 0.04 0 0.36 0.04 0 0.365 0.04 0 0.37 0.04 0 0.375 0.04 0 0.38 0.04 0 0.385 0.04 0 0.39 0.04 0 0.395 0.04 0 0.4 0.04 0 0.405 0.04 0 0.41 0.04 0 0.415 0.04 0 0.42 0.04 0 0.425 0.04 0 0.43 0.04 0 0.435 0.04 0 0.44 0.04 0 0.445 0.04 0 0.45 0.04 0 0.455 0.04 0 0.46 0.04 0 0.465 0.04 0 0.47 0.04 0 0.475 0.04 0 0.48 0.04 0 0.485 0.04 0 0.49 0.04 0 0.495 0.04 0 0.5 0.04 0 0.505 0.04 0 0.51 0.04 0 0.515 0.04 0 0.52 0.04 0 0.525 0.04 0 0.53 0.04 0 0.535 0.04 0 0.54 0.04 0 0.545 0.04 0 0.55 0.04 0 0.555 0.04 0 0.56 0.04 0 0.565 0.04 0 0.57 0.04 0 0.575 0.04 0 0.58 0.04 0 0.585 0.04 0 0.59 0.04 0 0.595 0.04 0 0.6 0.04 0 0.605 0.04 0 0.61 0.04 0 0.615 0.04 0 0.62 0.04 0 0.625 0.04 0 0.63 0.04 0 0.635 0.04 0 0.64 0.04 0 0.645 0.04 0 0.65 0.04 0 0.655 0.04 0 0.66 0.04 0 0.665 0.04 0 0.67 0.04 0 0.675 0.04 0 0.68 0.04 0 0.685 0.04 0 0.69 0.04 0 0.695 0.04 0 0.7 0.04 0 0.705 0.04 0 0.71 0.04 0 0.715 0.04 0 0.72 0.04 0 0.725 0.04 0 0.73 0.04 0 0.735 0.04 0 0.74 0.04 0 0.745 0.04 0 0.75 0.04 0 0.755 0.04 0 0.76 0.04 0 0.765 0.04 0 0.77 0.04 0 0.775 0.04 0 0.78 0.04 0 0.785 0.04 0 0.79 0.04 0 0.795 0.04 0 0.8 0.04 0 0.805 0.04 0 0.81 0.04 0 0.815 0.04 0 0.82 0.04 0 0.825 0.04 0 0.83 0.04 0 0.835 0.04 0 0.84 0.04 0 0.845 0.04 0 0.85 0.04 0 0.855 0.04 0 0.86 0.04 0 0.865 0.04 0 0.87 0.04 0 0.875 0.04 0 0.88 0.04 0 0.885 0.04 0 0.89 0.04 0 0.895 0.04 0 0.9 0.04 0 0.905 0.04 0 0.91 0.04 0 0.915 0.04 0 0.92 0.04 0 0.925 0.04 0 0.93 0.04 0 0.935 0.04 0 0.94 0.04 0 0.945 0.04 0 0.95 0.04 0 0.955 0.04 0 0.96 0.04 0 0.965 0.04 0 0.97 0.04 0 0.975 0.04 0 0.98 0.04 0 0.985 0.04 0 0.99 0.04 0 0.995 0.04 0 1 0.04 0 0 0.06 0 0.005 0.06 0 0.01 0.06 0 0.015 0.06 0 0.02 0.06 0 0.025 0.06 0 0.03 0.06 0 0.035 0.06 0 0.04 0.06 0 0.045 0.06 0 0.05 0.06 0 0.055 0.06 0 0.06 0.06 0 0.065 0.06 0 0.07 0.06 0 0.075 0.06 0 0.08 0.06 0 0.085 0.06 0 0.09 0.06 0 0.095 0.06 0 0.1 0.06 0 0.105 0.06 0 0.11 0.06 0 0.115 0.06 0 0.12 0.06 0 0.125 0.06 0 0.13 0.06 0 0.135 0.06 0 0.14 0.06 0 0.145 0.06 0 0.15 0.06 0 0.155 0.06 0 0.16 0.06 0 0.165 0.06 0 0.17 0.06 0 0.175 0.06 0 0.18 0.06 0 0.185 0.06 0 0.19 0.06 0 0.195 0.06 0 0.2 0.06 0 0.205 0.06 0 0.21 0.06 0 0.215 0.06 0 0.22 0.06 0 0.225 0.06 0 0.23 0.06 0 0.235 0.06 0 0.24 0.06 0 0.245 0.06 0 0.25 0.06 0 0.255 0.06 0 0.26 0.06 0 0.265 0.06 0 0.27 0.06 0 0.275 0.06 0 0.28 0.06 0 0.285 0.06 0 0.29 0.06 0 0.295 0.06 0 0.3 0.06 0 0.305 0.06 0 0.31 0.06 0 0.315 0.06 0 0.32 0.06 0 0.325 0.06 0 0.33 0.06 0 0.335 0.06 0 0.34 0.06 0 0.345 0.06 0 0.35 0.06 0 0.355 0.06 0 0.36 0.06 0 0.365 0.06 0 0.37 0.06 0 0.375 0.06 0 0.38 0.06 0 0.385 0.06 0 0.39 0.06 0 0.395 0.06 0 0.4 0.06 0 0.405 0.06 0 0.41 0.06 0 0.415 0.06 0 0.42 0.06 0 0.425 0.06 0 0.43 0.06 0 0.435 0.06 0 0.44 0.06 0 0.445 0.06 0 0.45 0.06 0 0.455 0.06 0 0.46 0.06 0 0.465 0.06 0 0.47 0.06 0 0.475 0.06 0 0.48 0.06 0 0.485 0.06 0 0.49 0.06 0 0.495 0.06 0 0.5 0.06 0 0.505 0.06 0 0.51 0.06 0 0.515 0.06 0 0.52 0.06 0 0.525 0.06 0 0.53 0.06 0 0.535 0.06 0 0.54 0.06 0 0.545 0.06 0 0.55 0.06 0 0.555 0.06 0 0.56 0.06 0 0.565 0.06 0 0.57 0.06 0 0.575 0.06 0 0.58 0.06 0 0.585 0.06 0 0.59 0.06 0 0.595 0.06 0 0.6 0.06 0 0.605 0.06 0 0.61 0.06 0 0.615 0.06 0 0.62 0.06 0 0.625 0.06 0 0.63 0.06 0 0.635 0.06 0 0.64 0.06 0 0.645 0.06 0 0.65 0.06 0 0.655 0.06 0 0.66 0.06 0 0.665 0.06 0 0.67 0.06 0 0.675 0.06 0 0.68 0.06 0 0.685 0.06 0 0.69 0.06 0 0.695 0.06 0 0.7 0.06 0 0.705 0.06 0 0.71 0.06 0 0.715 0.06 0 0.72 0.06 0 0.725 0.06 0 0.73 0.06 0 0.735 0.06 0 0.74 0.06 0 0.745 0.06 0 0.75 0.06 0 0.755 0.06 0 0.76 0.06 0 0.765 0.06 0 0.77 0.06 0 0.775 0.06 0 0.78 0.06 0 0.785 0.06 0 0.79 0.06 0 0.795 0.06 0 0.8 0.06 0 0.805 0.06 0 0.81 0.06 0 0.815 0.06 0 0.82 0.06 0 0.825 0.06 0 0.83 0.06 0 0.835 0.06 0 0.84 0.06 0 0.845 0.06 0 0.85 0.06 0 0.855 0.06 0 0.86 0.06 0 0.865 0.06 0 0.87 0.06 0 0.875 0.06 0 0.88 0.06 0 0.885 0.06 0 0.89 0.06 0 0.895 0.06 0 0.9 0.06 0 0.905 0.06 0 0.91 0.06 0 0.915 0.06 0 0.92 0.06 0 0.925 0.06 0 0.93 0.06 0 0.935 0.06 0 0.94 0.06 0 0.945 0.06 0 0.95 0.06 0 0.955 0.06 0 0.96 0.06 0 0.965 0.06 0 0.97 0.06 0 0.975 0.06 0 0.98 0.06 0 0.985 0.06 0 0.99 0.06 0 0.995 0.06 0 1 0.06 0 0 0.08 0 0.005 0.08 0 0.01 0.08 0 0.015 0.08 0 0.02 0.08 0 0.025 0.08 0 0.03 0.08 0 0.035 0.08 0 0.04 0.08 0 0.045 0.08 0 0.05 0.08 0 0.055 0.08 0 0.06 0.08 0 0.065 0.08 0 0.07 0.08 0 0.075 0.08 0 0.08 0.08 0 0.085 0.08 0 0.09 0.08 0 0.095 0.08 0 0.1 0.08 0 0.105 0.08 0 0.11 0.08 0 0.115 0.08 0 0.12 0.08 0 0.125 0.08 0 0.13 0.08 0 0.135 0.08 0 0.14 0.08 0 0.145 0.08 0 0.15 0.08 0 0.155 0.08 0 0.16 0.08 0 0.165 0.08 0
[...]
			<CellData Scalars="Density">
				<DataArray Name="Density" type="Float32" format="ascii">
 1 1 1 1 1 1 1 1 1 1 1 1 1 1 1 1 1 1 1 1 1 1 1 1 1 1 1 1 1 1 1 1 1 1 1 1 1 1 1 1 1 1 1 1 0.999999 0.999996 0.99999 0.999975 0.999934 0.999831 0.999588 0.999081 0.998131 0.996517 0.994 0.990361 0.985435 0.979126 0.971417 0.962359 0.952055 0.940637 0.928254 0.915055 0.901183 0.886769 0.871925 0.856761 0.841371 0.825841 0.810242 0.794638 0.779057 0.763572 0.748176 0.732938 0.717848 0.702945 0.688241 0.673738 0.659479 0.645423 0.631656 0.618085 0.604849 0.591815 0.579118 0.566694 0.554592 0.542794 0.531375 0.520309 0.509637 0.499396 0.489642 0.480415 0.471749 0.4637 0.456357 0.449809 0.444063 0.439089 0.434916 0.431604 0.429065 0.42713 0.425706 0.424723 0.424042 0.42357 0.423277 0.42311 0.422975 0.422833 0.42267 0.422478 0.422258 0.422019 0.421757 0.421455 0.421062 0.420473 0.419494 0.417796 0.414883 0.410063 0.40248 0.39121 0.375459 0.35487 0.329664 0.304948 0.289538 0.279401 0.273271 0.269833 0.268056 0.267226 0.266891 0.266791 0.266789 0.266815 0.266843 0.26687 0.266884 0.266893 0.266898 0.2669 0.266898 0.266884 0.266855 0.26678 0.266551 0.266066 0.264404 0.260496 0.249734 0.225271 0.180201 0.136674 0.126918 0.125295 0.125045 0.125007 0.125001 0.125 0.125 0.125 0.125 0.125 0.125 0.125 0.125 0.125 0.125 0.125 0.125 0.125 0.125 0.125 0.125 0.125 0.125 0.125 0.125 0.125 0.125 0.125 0.125 0.125 0.125 0.125 0.125 0.125 0.125 0.125 0.125 0.125 0.125 0.125 1 1 1 1 1 1 1 1 1 1 1 1 1 1 1 1 1 1 1 1 1 1 1 1 1 1 1 1 1 1 1 1 1 1 1 1 1 1 1 1 1 1 1 1 0.999999 0.999996 0.99999 0.999975 0.999934 0.999831 0.999588 0.999081 0.998131 0.996517 0.994 0.990361 0.985435 0.979126 0.971417 0.962359 0.952055 0.940637 0.928254 0.915055 0.901183 0.886769 0.871925 0.856761 0.841371 0.825841 0.810242 0.794638 0.779057 0.763572 0.748176 0.732938 0.717848 0.702945 0.688241 0.673738 0.659479 0.645423 0.631656 0.618085 0.604849 0.591815 0.579118 0.566694 0.554592 0.542794 0.531375 0.520309 0.509637 0.499396 0.489642 0.480415 0.471749 0.4637 0.456357 0.449809 0.444063 0.439089 0.434916 0.431604 0.429065 0.42713 0.425706 0.424723 0.424042 0.42357 0.423277 0.42311 0.422975 0.422833 0.42267 0.422478 0.422258 0.422019 0.421757 0.421455 0.421062 0.420473 0.419494 0.417796 0.414883 0.410063 0.40248 0.39121 0.375459 0.35487 0.329664 0.304948 0.289538 0.279401 0.273271 0.269833 0.268056 0.267226 0.266891 0.266791 0.266789 0.266815 0.266843 0.26687 0.266884 0.266893 0.266898 0.2669 0.266898 0.266884 0.266855 0.26678 0.266551 0.266066 0.264404 0.260496 0.249734 0.225271 0.180201 0.136674 0.126918 0.125295 0.125045 0.125007 0.125001 0.125 0.125 0.125 0.125 0.125 0.125 0.125 0.125 0.125 0.125 0.125 0.125 0.125 0.125 0.125 0.125 0.125 0.125 0.125 0.125 0.125 0.125 0.125 0.125 0.125 0.125 0.125 0.125 0.125 0.125 0.125 0.125 0.125 0.125 0.125 1 1 1 1 1 1 1 1 1 1 1 1 1 1 1 1 1 1 1 1 1 1 1 1 1 1 1 1 1 1 1 1 1 1 1 1 1 1 1 1 1 1 1 1 0.999999 0.999996 0.99999 0.999975 0.999934 0.999831 0.999588 0.999081 0.998131 0.996517 0.994 0.990361 0.985435 0.979126 0.971417 0.962359 0.952055 0.940637 0.928254 0.915055 0.901183 0.886769 0.871925 0.856761 0.841371 0.825841 0.810242 0.794638 0.779057 0.763572 0.748176 0.732938 0.717848 0.702945 0.688241 0.673738 0.659479 0.645423 0.631656 0.618085 0.604849 0.591815 0.579118 0.566694 0.554592 0.542794 0.531375 0.520309 0.509637 0.499396 0.489642 0.480415 0.471749 0.4637 0.456357 0.449809 0.444063 0.439089 0.434916 0.431604 0.429065 0.42713 0.425706 0.424723 0.424042 0.42357 0.423277 0.42311 0.422975 0.422833 0.42267 0.422478 0.422258 0.422019 0.421757 0.421455 0.421062 0.420473 0.419494 0.417796 0.414883 0.410063 0.40248 0.39121 0.375459 0.35487 0.329664 0.304948 0.289538 0.279401 0.273271 0.269833 0.268056 0.267226 0.266891 0.266791 0.266789 0.266815 0.266843 0.26687 0.266884 0.266893 0.266898 0.2669 0.266898 0.266884 0.266855 0.26678 0.266551 0.266066 0.264404 0.260496 0.249734 0.225271 0.180201 0.136674 0.126918 0.125295 0.125045 0.125007 0.125001 0.125 0.125 0.125 0.125 0.125 0.125 0.125 0.125 0.125 0.125 0.125 0.125 0.125 0.125 0.125 0.125 0.125 0.125 0.125 0.125 0.125 0.125 0.125 0.125 0.125 0.125 0.125 0.125 0.125 0.125 0.125 0.125 0.125 0.125 0.125 1 1 1 1 1 1 1 1 1 1 1 1 1 1 1 1 1 1 1 1 1 1 1 1 1 1 1 1 1 1 1 1 1 1 1 1 1 1 1 1 1 1 1 1 0.999999 0.999996 0.99999 0.999975 0.999934 0.999831 0.999588 0.999081 0.998131 0.996517 0.994 0.990361 0.985435 0.979126 0.971417 0.962359 0.952055 0.940637 0.928254 0.915055 0.901183 0.886769 0.871925 0.856761 0.841371 0.825841 0.810242 0.794638 0.779057 0.763572 0.748176 0.732938 0.717848 0.702945 0.688241 0.673738 0.659479 0.645423 0.631656 0.618085 0.604849 0.591815 0.579118 0.566694 0.554592 0.542794 0.531375 0.520309 0.509637 0.499396 0.489642 0.480415 0.471749 0.4637 0.456357 0.449809 0.444063 0.439089 0.434916 0.431604 0.429065 0.42713 0.425706 0.424723 0.424042 0.42357 0.423277 0.42311 0.422975 0.422833 0.42267 0.422478 0.422258 0.422019 0.421757 0.421455 0.421062 0.420473 0.419494 0.417796 0.414883 0.410063 0.40248 0.39121 0.375459 0.35487 0.329664 0.304948 0.289538 0.279401 0.273271 0.269833 0.268056 0.267226 0.266891 0.266791 0.266789 0.266815 0.266843 0.26687 0.266884 0.266893 0.266898 0.2669 0.266898 0.266884 0.266855 0.26678 0.266551 0.266066 0.264404 0.260496 0.249734 0.225271 0.180201 0.136674 0.126918 0.125295 0.125045 0.125007 0.125001 0.125 0.125 0.125 0.125 0.125 0.125 0.125 0.125 0.125 0.125 0.125 0.125 0.125 0.125 0.125 0.125 0.125 0.125 0.125 0.125 0.125 0.125 0.125 0.125 0.125 0.125 0.125 0.125 0.125 0.125 0.125 0.125 0.125 0.125 0.125 1 1 1 1 1 1 1 1 1 1 1 1 1 1 1 1 1 1 1 1 1 1 1 1 1 1 1 1 1 1 1 1 1 1 1 1 1 1 1 1 1 1 1 1 0.999999 0.999996 0.99999 0.999975 0.999934 0.999831 0.999588 0.999081 0.998131 0.996517 0.994 0.990361 0.985435 0.979126 0.971417 0.962359 0.952055 0.940637 0.928254 0.915055 0.901183 0.886769 0.871925 0.856761 0.841371 0.825841 0.810242 0.794638 0.779057 0.763572 0.748176 0.732938 0.717848 0.702945 0.688241 0.673738 0.659479 0.645423 0.631656 0.618085 0.604849 0.591815 0.579118 0.566694 0.554592 0.542794 0.531375 0.520309 0.509637 0.499396 0.489642 0.480415 0.471749 0.4637 0.456357 0.449809 0.444063 0.439089 0.434916 0.431604 0.429065 0.42713 0.425706 0.424723 0.424042 0.42357 0.423277 0.42311 0.422975 0.422833 0.42267 0.422478 0.422258 0.422019 0.421757 0.421455 0.421062 0.420473 0.419494 0.417796 0.414883 0.410063 0.40248 0.39121 0.375459 0.35487 0.329664 0.304948 0.289538 0.279401 0.273271 0.269833 0.268056 0.267226 0.266891 0.266791 0.266789 0.266815 0.266843 0.26687 0.266884 0.266893 0.266898 0.2669 0.266898 0.266884 0.266855 0.26678 0.266551 0.266066 0.264404 0.260496 0.249734 0.225271 0.180201 0.136674 0.126918 0.125295 0.125045 0.125007 0.125001 0.125 0.125 0.125 0.125 0.125 0.125 0.125 0.125 0.125 0.125 0.125 0.125 0.125 0.125 0.125 0.125 0.125 0.125 0.125 0.125 0.125 0.125 0.125 0.125 0.125 0.125 0.125 0.125 0.125 0.125 0.125 0.125 0.125 0.125 0.125
				</DataArray>
				<DataArray Name="Energy" type="Float32" format="ascii">
 2.5 2.5 2.5 2.5 2.5 2.5 2.5 2.5 2.5 2.5 2.5 2.5 2.5 2.5 2.5 2.5 2.5 2.5 2.5 2.5 2.5 2.5 2.5 2.5 2.5 2.5 2.5 2.5 2.5 2.5 2.5 2.5 2.5 2.5 2.5 2.5 2.5 2.5 2.5 2.5 2.5 2.5 2.5 2.5 2.5 2.5 2.49999 2.49997 2.49993 2.49983 2.49959 2.49908 2.49813 2.49652 2.49399 2.49035 2.4854 2.47904 2.47125 2.46206 2.45155 2.43983 2.42703 2.41329 2.39873 2.38346 2.36759 2.35122 2.33444 2.31731 2.29991 2.28231 2.26455 2.24668 2.22872 2.21073 2.19269 2.17467 2.15666 2.13868 2.12078 2.10292 2.08518 2.06754 2.05001 2.03264 2.01547 1.99839 1.98163 1.96509 1.9488 1.93285 1.91735 1.9023 1.88773 1.87377 1.86061 1.84837 1.83708 1.82673 1.81758 1.80995 1.80374 1.79857 1.79445 1.79158 1.78974 1.78859 1.78802 1.78793 1.78803 1.78812 1.78838 1.7889 1.78962 1.7905 1.7915 1.79256 1.7937 1.795 1.79668 1.7992 1.80342 1.81077 1.82351 1.84497 1.87975 1.93393 2.01503 2.13189 2.29339 2.47876 2.61289 2.7078 2.76858 2.80386 2.82242 2.83116 2.83469 2.83572 2.83573 2.83539 2.835 2.83468 2.83443 2.83422 2.83406 2.8339 2.83376 2.83361 2.83343 2.83309 2.83211 2.83002 2.82289 2.80579 2.75745 2.63422 2.37086 2.07996 2.01244 2.00189 2.00029 2.00004 2.00001 2 2 2 2 2 2 2 2 2 2 2 2 2 2 2 2 2 2 2 2 2 2 2 2 2 2 2 2 2 2 2 2 2 2 2 2.5 2.5 2.5 2.5 2.5 2.5 2.5 2.5 2.5 2.5 2.5 2.5 2.5 2.5 2.5 2.5 2.5 2.5 2.5 2.5 2.5 2.5 2.5 2.5 2.5 2.5 2.5 2.5 2.5 2.5 2.5 2.5 2.5 2.5 2.5 2.5 2.5 2.5 2.5 2.5 2.5 2.5 2.5 2.5 2.5 2.5 2.49999 2.49997 2.49993 2.49983 2.49959 2.49908 2.49813 2.49652 2.49399 2.49035 2.4854 2.47904 2.47125 2.46206 2.45155 2.43983 2.42703 2.41329 2.39873 2.38346 2.36759 2.35122 2.33444 2.31731 2.29991 2.28231 2.26455 2.24668 2.22872 2.21073 2.19269 2.17467 2.15666 2.13868 2.12078 2.10292 2.08518 2.06754 2.05001 2.03264 2.01547 1.99839 1.98163 1.96509 1.9488 1.93285 1.91735 1.9023 1.88773 1.87377 1.86061 1.84837 1.83708 1.82673 1.81758 1.80995 1.80374 1.79857 1.79445 1.79158 1.78974 1.78859 1.78802 1.78793 1.78803 1.78812 1.78838 1.7889 1.78962 1.7905 1.7915 1.79256 1.7937 1.795 1.79668 1.7992 1.80342 1.81077 1.82351 1.84497 1.87975 1.93393 2.01503 2.13189 2.29339 2.47876 2.61289 2.7078 2.76858 2.80386 2.82242 2.83116 2.83469 2.83572 2.83573 2.83539 2.835 2.83468 2.83443 2.83422 2.83406 2.8339 2.83376 2.83361 2.83343 2.83309 2.83211 2.83002 2.82289 2.80579 2.75745 2.63422 2.37086 2.07996 2.01244 2.00189 2.00029 2.00004 2.00001 2 2 2 2 2 2 2 2 2 2 2 2 2 2 2 2 2 2 2 2 2 2 2 2 2 2 2 2 2 2 2 2 2 2 2 2.5 2.5 2.5 2.5 2.5 2.5 2.5 2.5 2.5 2.5 2.5 2.5 2.5 2.5 2.5 2.5 2.5 2.5 2.5 2.5 2.5 2.5 2.5 2.5 2.5 2.5 2.5 2.5 2.5 2.5 2.5 2.5 2.5 2.5 2.5 2.5 2.5 2.5 2.5 2.5 2.5 2.5 2.5 2.5 2.5 2.5 2.49999 2.49997 2.49993 2.49983 2.49959 2.49908 2.49813 2.49652 2.49399 2.49035 2.4854 2.47904 2.47125 2.46206 2.45155 2.43983 2.42703 2.41329 2.39873 2.38346 2.36759 2.35122 2.33444 2.31731 2.29991 2.28231 2.26455 2.24668 2.22872 2.21073 2.19269 2.17467 2.15666 2.13868 2.12078 2.10292 2.08518 2.06754 2.05001 2.03264 2.01547 1.99839 1.98163 1.96509 1.9488 1.93285 1.91735 1.9023 1.88773 1.87377 1.86061 1.84837 1.83708 1.82673 1.81758 1.80995 1.80374 1.79857 1.79445 1.79158 1.78974 1.78859 1.78802 1.78793 1.78803 1.78812 1.78838 1.7889 1.78962 1.7905 1.7915 1.79256 1.7937 1.795 1.79668 1.7992 1.80342 1.81077 1.82351 1.84497 1.87975 1.93393 2.01503 2.13189 2.29339 2.47876 2.61289 2.7078 2.76858 2.80386 2.82242 2.83116 2.83469 2.83572 2.83573 2.83539 2.835 2.83468 2.83443 2.83422 2.83406 2.8339 2.83376 2.83361 2.83343 2.83309 2.83211 2.83002 2.82289 2.80579 2.75745 2.63422 2.37086 2.07996 2.01244 2.00189 2.00029 2.00004 2.00001 2 2 2 2 2 2 2 2 2 2 2 2 2 2 2 2 2 2 2 2 2 2 2 2 2 2 2 2 2 2 2 2 2 2 2 2.5 2.5 2.5 2.5 2.5 2.5 2.5 2.5 2.5 2.5 2.5 2.5 2.5 2.5 2.5 2.5 2.5 2.5 2.5 2.5 2.5 2.5 2.5 2.5 2.5 2.5 2.5 2.5 2.5 2.5 2.5 2.5 2.5 2.5 2.5 2.5 2.5 2.5 2.5 2.5 2.5 2.5 2.5 2.5 2.5 2.5 2.49999 2.49997 2.49993 2.49983 2.49959 2.49908 2.49813 2.49652 2.49399 2.49035 2.4854 2.47904 2.47125 2.46206 2.45155 2.43983 2.42703 2.41329 2.39873 2.38346 2.36759 2.35122 2.33444 2.31731 2.29991 2.28231 2.26455 2.24668 2.22872 2.21073 2.19269 2.17467 2.15666 2.13868 2.12078 2.10292 2.08518 2.06754 2.05001 2.03264 2.01547 1.99839 1.98163 1.96509 1.9488 1.93285 1.91735 1.9023 1.88773 1.87377 1.86061 1.84837 1.83708 1.82673 1.81758 1.80995 1.80374 1.79857 1.79445 1.79158 1.78974 1.78859 1.78802 1.78793 1.78803 1.78812 1.78838 1.7889 1.78962 1.7905 1.7915 1.79256 1.7937 1.795 1.79668 1.7992 1.80342 1.81077 1.82351 1.84497 1.87975 1.93393 2.01503 2.13189 2.29339 2.47876 2.61289 2.7078 2.76858 2.80386 2.82242 2.83116 2.83469 2.83572 2.83573 2.83539 2.835 2.83468 2.83443 2.83422 2.83406 2.8339 2.83376 2.83361 2.83343 2.83309 2.83211 2.83002 2.82289 2.80579 2.75745 2.63422 2.37086 2.07996 2.01244 2.00189 2.00029 2.00004 2.00001 2 2 2 2 2 2 2 2 2 2 2 2 2 2 2 2 2 2 2 2 2 2 2 2 2 2 2 2 2 2 2 2 2 2 2 2.5 2.5 2.5 2.5 2.5 2.5 2.5 2.5 2.5 2.5 2.5 2.5 2.5 2.5 2.5 2.5 2.5 2.5 2.5 2.5 2.5 2.5 2.5 2.5 2.5 2.5 2.5 2.5 2.5 2.5 2.5 2.5 2.5 2.5 2.5 2.5 2.5 2.5 2.5 2.5 2.5 2.5 2.5 2.5 2.5 2.5 2.49999 2.49997 2.49993 2.49983 2.49959 2.49908 2.49813 2.49652 2.49399 2.49035 2.4854 2.47904 2.47125 2.46206 2.45155 2.43983 2.42703 2.41329 2.39873 2.38346 2.36759 2.35122 2.33444 2.31731 2.29991 2.28231 2.26455 2.24668 2.22872 2.21073 2.19269 2.17467 2.15666 2.13868 2.12078 2.10292 2.08518 2.06754 2.05001 2.03264 2.01547 1.99839 1.98163 1.96509 1.9488 1.93285 1.91735 1.9023 1.88773 1.87377 1.86061 1.84837 1.83708 1.82673 1.81758 1.80995 1.80374 1.79857 1.79445 1.79158 1.78974 1.78859 1.78802 1.78793 1.78803 1.78812 1.78838 1.7889 1.78962 1.7905 1.7915 1.79256 1.7937 1.795 1.79668 1.7992 1.80342 1.81077 1.82351 1.84497 1.87975 1.93393 2.01503 2.13189 2.29339 2.47876 2.61289 2.7078 2.76858 2.80386 2.82242 2.83116 2.83469 2.83572 2.83573 2.83539 2.835 2.83468 2.83443 2.83422 2.83406 2.8339 2.83376 2.83361 2.83343 2.83309 2.83211 2.83002 2.82289 2.80579 2.75745 2.63422 2.37086 2.07996 2.01244 2.00189 2.00029 2.00004 2.00001 2 2 2 2 2 2 2 2 2 2 2 2 2 2 2 2 2 2 2 2 2 2 2 2 2 2 2 2 2 2 2 2 2 2 2
				</DataArray>
				<DataArray Name="F1" type="Float32" format="ascii">
 1 1 1 1 1 1 1 1 1 1 1 1 1 1 1 1 1 1 1 1 1 1 1 1 1 1 1 1 1 1 1 1 1 1 1 1 1 1 1 1 1 1 1 1 1 1 1 1 1 1 1 1 1 1 1 1 1 1 1 1 1 1 1 1 1 1 1 1 1 1 1 1 1 1 1 1 1 1 1 1 1 1 1 1 1 1 1 1 1 1 1 1 1 1 1 1 1 1 1 1 1 1 1 1 1 1 1 1 1 1 1 1 1 0.999999 0.999998 0.999992 0.999974 0.999921 0.999779 0.99942 0.998566 0.996656 0.992647 0.984734 0.970053 0.944461 0.902581 0.83832 0.746056 0.622466 0.468706 0.311324 0.194688 0.115539 0.0652776 0.0351899 0.018136 0.00895095 0.00423676 0.00192563 0.000841266 0.000353572 0.00014305 5.57379e-05 2.09198e-05 7.56288e-06 2.63263e-06 8.81711e-07 2.83737e-07 8.75436e-08 2.58111e-08 7.23397e-09 1.91137e-09 4.69719e-10 1.04907e-10 2.04821e-11 3.24778e-12 3.6313e-13 2.18949e-14 1.43266e-16 0 0 0 0 0 0 0 0 0 0 0 0 0 0 0 0 0 0 0 0 0 0 0 0 0 0 0 0 0 0 0 0 0 0 0 0 0 0 0 0 1 1 1 1 1 1 1 1 1 1 1 1 1 1 1 1 1 1 1 1 1 1 1 1 1 1 1 1 1 1 1 1 1 1 1 1 1 1 1 1 1 1 1 1 1 1 1 1 1 1 1 1 1 1 1 1 1 1 1 1 1 1 1 1 1 1 1 1 1 1 1 1 1 1 1 1 1 1 1 1 1 1 1 1 1 1 1 1 1 1 1 1 1 1 1 1 1 1 1 1 1 1 1 1 1 1 1 1 1 1 1 1 1 0.999999 0.999998 0.999992 0.999974 0.999921 0.999779 0.99942 0.998566 0.996656 0.992647 0.984734 0.970053 0.944461 0.902581 0.83832 0.746056 0.622466 0.468706 0.311324 0.194688 0.115539 0.0652776 0.0351899 0.018136 0.00895095 0.00423676 0.00192563 0.000841266 0.000353572 0.00014305 5.57379e-05 2.09198e-05 7.56288e-06 2.63263e-06 8.81711e-07 2.83737e-07 8.75436e-08 2.58111e-08 7.23397e-09 1.91137e-09 4.69719e-10 1.04907e-10 2.04821e-11 3.24778e-12 3.6313e-13 2.18949e-14 1.43266e-16 0 0 0 0 0 0 0 0 0 0 0 0 0 0 0 0 0 0 0 0 0 0 0 0 0 0 0 0 0 0 0 0 0 0 0 0 0 0 0 0 1 1 1 1 1 1 1 1 1 1 1 1 1 1 1 1 1 1 1 1 1 1 1 1 1 1 1 1 1 1 1 1 1 1 1 1 1 1 1 1 1 1 1 1 1 1 1 1 1 1 1 1 1 1 1 1 1 1 1 1 1 1 1 1 1 1 1 1 1 1 1 1 1 1 1 1 1 1 1 1 1 1 1 1 1 1 1 1 1 1 1 1 1 1 1 1 1 1 1 1 1 1 1 1 1 1 1 1 1 1 1 1 1 0.999999 0.999998 0.999992 0.999974 0.999921 0.999779 0.99942 0.998566 0.996656 0.992647 0.984734 0.970053 0.944461 0.902581 0.83832 0.746056 0.622466 0.468706 0.311324 0.194688 0.115539 0.0652776 0.0351899 0.018136 0.00895095 0.00423676 0.00192563 0.000841266 0.000353572 0.00014305 5.57379e-05 2.09198e-05 7.56288e-06 2.63263e-06 8.81711e-07 2.83737e-07 8.75436e-08 2.58111e-08 7.23397e-09 1.91137e-09 4.69719e-10 1.04907e-10 2.04821e-11 3.24778e-12 3.6313e-13 2.18949e-14 1.43266e-16 0 0 0 0 0 0 0 0 0 0 0 0 0 0 0 0 0 0 0 0 0 0 0 0 0 0 0 0 0 0 0 0 0 0 0 0 0 0 0 0 1 1 1 1 1 1 1 1 1 1 1 1 1 1 1 1 1 1 1 1 1 1 1 1 1 1 1 1 1 1 1 1 1 1 1 1 1 1 1 1 1 1 1 1 1 1 1 1 1 1 1 1 1 1 1 1 1 1 1 1 1 1 1 1 1 1 1 1 1 1 1 1 1 1 1 1 1 1 1 1 1 1 1 1 1 1 1 1 1 1 1 1 1 1 1 1 1 1 1 1 1 1 1 1 1 1 1 1 1 1 1 1 1 0.999999 0.999998 0.999992 0.999974 0.999921 0.999779 0.99942 0.998566 0.996656 0.992647 0.984734 0.970053 0.944461 0.902581 0.83832 0.746056 0.622466 0.468706 0.311324 0.194688 0.115539 0.0652776 0.0351899 0.018136 0.00895095 0.00423676 0.00192563 0.000841266 0.000353572 0.00014305 5.57379e-05 2.09198e-05 7.56288e-06 2.63263e-06 8.81711e-07 2.83737e-07 8.75436e-08 2.58111e-08 7.23397e-09 1.91137e-09 4.69719e-10 1.04907e-10 2.04821e-11 3.24778e-12 3.6313e-13 2.18949e-14 1.43266e-16 0 0 0 0 0 0 0 0 0 0 0 0 0 0 0 0 0 0 0 0 0 0 0 0 0 0 0 0 0 0 0 0 0 0 0 0 0 0 0 0 1 1 1 1 1 1 1 1 1 1 1 1 1 1 1 1 1 1 1 1 1 1 1 1 1 1 1 1 1 1 1 1 1 1 1 1 1 1 1 1 1 1 1 1 1 1 1 1 1 1 1 1 1 1 1 1 1 1 1 1 1 1 1 1 1 1 1 1 1 1 1 1 1 1 1 1 1 1 1 1 1 1 1 1 1 1 1 1 1 1 1 1 1 1 1 1 1 1 1 1 1 1 1 1 1 1 1 1 1 1 1 1 1 0.999999 0.999998 0.999992 0.999974 0.999921 0.999779 0.99942 0.998566 0.996656 0.992647 0.984734 0.970053 0.944461 0.902581 0.83832 0.746056 0.622466 0.468706 0.311324 0.194688 0.115539 0.0652776 0.0351899 0.018136 0.00895095 0.00423676 0.00192563 0.000841266 0.000353572 0.00014305 5.57379e-05 2.09198e-05 7.56288e-06 2.63263e-06 8.81711e-07 2.83737e-07 8.75436e-08 2.58111e-08 7.23397e-09 1.91137e-09 4.69719e-10 1.04907e-10 2.04821e-11 3.24778e-12 3.6313e-13 2.18949e-14 1.43266e-16 0 0 0 0 0 0 0 0 0 0 0 0 0 0 0 0 0 0 0 0 0 0 0 0 0 0 0 0 0 0 0 0 0 0 0 0 0 0 0 0
				</DataArray>
				<DataArray Name="F2" type="Float32" format="ascii">