<?xml version="1.0"?>
<VTKFile type="PolyData">
	<PolyData>
		<Piece NumberOfPoints="1206" NumberOfPolys="1000">
			<Points>
				<DataArray type="Float32" NumberOfComponents="3" format="ascii">
 0 0 0 0.005 0 0 0.01 0 0 0.015 0 0 0.02 0 0 0.025 0 0 0.03 0 0 0.035 0 0 0.04 0 0 0.045 0 0 0.05 0 0 0.055 0 0 0.06 0 0 0.065 0 0 0.07 0 0 0.075 0 0 0.08 0 0 0.085 0 0 0.09 0 0 0.095 0 0 0.1 0 0 0.105 0 0 0.11 0 0 0.115 0 0 0.12 0 0 0.125 0 0 0.13 0 0 0.135 0 0 0.14 0 0 0.145 0 0 0.15 0 0 0.155 0 0 0.16 0 0 0.165 0 0 0.17 0 0 0.175 0 0 0.18 0 0 0.185 0 0 0.19 0 0 0.195 0 0 0.2 0 0 0.205 0 0 0.21 0 0 0.215 0 0 0.22 0 0 0.225 0 0 0.23 0 0 0.235 0 0 0.24 0 0 0.245 0 0 0.25 0 0 0.255 0 0 0.26 0 0 0.265 0 0 0.27 0 0 0.275 0 0 0.28 0 0 0.285 0 0 0.29 0 0 0.295 0 0 0.3 0 0 0.305 0 0 0.31 0 0 0.315 0 0 0.32 0 0 0.325 0 0 0.33 0 0 0.335 0 0 0.34 0 0 0.345 0 0 0.35 0 0 0.355 0 0 0.36 0 0 0.365 0 0 0.37 0 0 0.375 0 0 0.38 0 0 0.385 0 0 0.39 0 0 0.395 0 0 0.4 0 0 0.405 0 0 0.41 0 0 0.415 0 0 0.42 0 0 0.425 0 0 0.43 0 0 0.435 0 0 0.44 0 0 0.445 0 0 0.45 0 0 0.455 0 0 0.46 0 0 0.465 0 0 0.47 0 0 0.475 0 0 0.48 0 0 0.485 0 0 0.49 0 0 0.495 0 0 0.5 0 0 0.505 0 0 0.51 0 0 0.515 0 0 0.52 0 0 0.525 0 0 0.53 0 0 0.535 0 0 0.54 0 0 0.545 0 0 0.55 0 0 0.555 0 0 0.56 0 0 0.565 0 0 0.57 0 0 0.575 0 0 0.58 0 0 0.585 0 0 0.59 0 0 0.595 0 0 0.6 0 0 0.605 0 0 0.61 0 0 0.615 0 0 0.62 0 0 0.625 0 0 0.63 0 0 0.635 0 0 0.64 0 0 0.645 0 0 0.65 0 0 0.655 0 0 0.66 0 0 0.665 0 0 0.67 0 0 0.675 0 0 0.68 0 0 0.685 0 0 0.69 0 0 0.695 0 0 0.7 0 0 0.705 0 0 0.71 0 0 0.715 0 0 0.72 0 0 0.725 0 0 0.73 0 0 0.735 0 0 0.74 0 0 0.745 0 0 0.75 0 0 0.755 0 0 0.76 0 0 0.765 0 0 0.77 0 0 0.775 0 0 0.78 0 0 0.785 0 0 0.79 0 0 0.795 0 0 0.8 0 0 0.805 0 0 0.81 0 0 0.815 0 0 0.82 0 0 0.825 0 0 0.83 0 0 0.835 0 0 0.84 0 0 0.845 0 0 0.85 0 0 0.855 0 0 0.86 0 0 0.865 0 0 0.87 0 0 0.875 0 0 0.88 0 0 0.885 0 0 0.89 0 0 0.895 0 0 0.9 0 0 0.905 0 0 0.91 0 0 0.915 0 0 0.92 0 0 0.925 0 0 0.93 0 0 0.935 0 0 0.94 0 0 0.945 0 0 0.95 0 0 0.955 0 0 0.96 0 0 0.965 0 0 0.97 0 0 0.975 0 0 0.98 0 0 0.985 0 0 0.99 0 0 0.995 0 0 1 0 0 0 0.02 0 0.005 0.02 0 0.01 0.02 0 0.015 0.02 0 0.02 0.02 0 0.025 0.02 0 0.03 0.02 0 0.035 0.02 0 0.04 0.02 0 0.045 0.02 0 0.05 0.02 0 0.055 0.02 0 0.06 0.02 0 0.065 0.02 0 0.07 0.02 0 0.075 0.02 0 0.08 0.02 0 0.085 0.02 0 0.09 0.02 0 0.095 0.02 0 0.1 0.02 0 0.105 0.02 0 0.11 0.02 0 0.115 0.02 0 0.12 0.02 0 0.125 0.02 0 0.13 0.02 0 0.135 0.02 0 0.14 0.02 0 0.145 0.02 0 0.15 0.02 0 0.155 0.02 0 0.16 0.02 0 0.165 0.02 0 0.17 0.02 0 0.175 0.02 0 0.18 0.02 0 0.185 0.02 0 0.19 0.02 0 0.195 0.02 0 0.2 0.02 0 0.205 0.02 0 0.21 0.02 0 0.215 0.02 0 0.22 0.02 0 0.225 0.02 0 0.23 0.02 0 0.235 0.02 0 0.24 0.02 0 0.245 0.02 0 0.25 0.02 0 0.255 0.02 0 0.26 0.02 0 0.265 0.02 0 0.27 0.02 0 0.275 0.02 0 0.28 0.02 0 0.285 0.02 0 0.29 0.02 0 0.295 0.02 0 0.3 0.02 0 0.305 0.02 0 0.31 0.02 0 0.315 0.02 0 0.32 0.02 0 0.325 0.02 0 0.33 0.02 0 0.335 0.02 0 0.34 0.02 0 0.345 0.02 0 0.35 0.02 0 0.355 0.02 0 0.36 0.02 0 0.365 0.02 0 0.37 0.02 0 0.375 0.02 0 0.38 0.02 0 0.385 0.02 0 0.39 0.02 0 0.395 0.02 0 0.4 0.02 0 0.405 0.02 0 0.41 0.02 0 0.415 0.02 0 0.42 0.02 0 0.425 0.02 0 0.43 0.02 0 0.435 0.02 0 0.44 0.02 0 0.445 0.02 0 0.45 0.02 0 0.455 0.02 0 0.46 0.02 0 0.465 0.02 0 0.47 0.02 0 0.475 0.02 0 0.48 0.02 0 0.485 0.02 0 0.49 0.02 0 0.495 0.02 0 0.5 0.02 0 0.505 0.02 0 0.51 0.02 0 0.515 0.02 0 0.52 0.02 0 0.525 0.02 0 0.53 0.02 0 0.535 0.02 0 0.54 0.02 0 0.545 0.02 0 0.55 0.02 0 0.555 0.02 0 0.56 0.02 0 0.565 0.02 0 0.57 0.02 0 0.575 0.02 0 0.58 0.02 0 0.585 0.02 0 0.59 0.02 0 0.595 0.02 0 0.6 0.02 0 0.605 0.02 0 0.61 0.02 0 0.615 0.02 0 0.62 0.02 0 0.625 0.02 0 0.63 0.02 0 0.635 0.02 0 0.64 0.02 0 0.645 0.02 0 0.65 0.02 0 0.655 0.02 0 0.66 0.02 0 0.665 0.02 0 0.67 0.02 0 0.675 0.02 0 0.68 0.02 0 0.685 0.02 0 0.69 0.02 0 0.695 0.02 0 0.7 0.02 0 0.705 0.02 0 0.71 0.02 0 0.715 0.02 0 0.72 0.02 0 0.725 0.02 0 0.73 0.02 0 0.735 0.02 0 0.74 0.02 0 0.745 0.02 0 0.75 0.02 0 0.755 0.02 0 0.76 0.02 0 0.765 0.02 0 0.77 0.02 0 0.775 0.02 0 0.78 0.02 0 0.785 0.02 0 0.79 0.02 0 0.795 0.02 0 0.8 0.02 0 0.805 0.02 0 0.81 0.02 0 0.815 0.02 0 0.82 0.02 0 0.825 0.02 0 0.83 0.02 0 0.835 0.02 0 0.84 0.02 0 0.845 0.02 0 0.85 0.02 0 0.855 0.02 0 0.86 0.02 0 0.865 0.02 0 0.87 0.02 0 0.875 0.02 0 0.88 0.02 0 0.885 0.02 0 0.89 0.02 0 0.895 0.02 0 0.9 0.02 0 0.905 0.02 0 0.91 0.02 0 0.915 0.02 0 0.92 0.02 0 0.925 0.02 0 0.93 0.02 0 0.935 0.02 0 0.94 0.02 0 0.945 0.02 0 0.95 0.02 0 0.955 0.02 0 0.96 0.02 0 0.965 0.02 0 0.97 0.02 0 0.975 0.02 0 0.98 0.02 0 0.985 0.02 0 0.99 0.02 0 0.995 0.02 0 1 0.02 0 0 0.04 0 0.005 0.04 0 0.01 0.04 0 0.015 0.04 0 0.02 0.04 0 0.025 0.04 0 0.03 0.04 0 0.035 0.04 0 0.04 0.04 0 0.045 0.04 0 0.05 0.04 0 0.055 0.04 0 0.06 0.04 0 0.065 0.04 0 0.07 0.04 0 0.075 0.04 0 0.08 0.04 0 0.085 0.04 0 0.09 0.04 0 0.095 0.04 0 0.1 0.04 0 0.105 0.04 0 0.11 0.04 0 0.115 0.04 0 0.12 0.04 0 0.125 0.04 0 0.13 0.04 0 0.135 0.04 0 0.14 0.04 0 0.145 0.04 0 0.15 0.04 0 0.155 0.04 0 0.16 0.04 0 0.165 0.04 0 0.17 0.04 0 0.175 0.04 0 0.18 0.04 0 0.185 0.04 0 0.19 0.04 0 0.195 0.04 0 0.2 0.04 0 0.205 0.04 0 0.21 0.04 0 0.215 0.04 0 0.22 0.04 0 0.225 0.04 0 0.23 0.04 0 0.235 0.04 0 0.24 0.04 0 0.245 0.04 0 0.25 0.04 0 0.255 0.04 0 0.26 0.04 0 0.265 0.04 0 0.27 0.04 0 0.275 0.04 0 0.28 0.04 0 0.285 0.04 0 0.29 0.04 0 0.295 0.04 0 0.3 0.04 0 0.305 0.04 0 0.31 0.04 0 0.315 0.04 0 0.32 0.04 0 0.325 0.04 0 0.33 0.04 0 0.335 0.04 0 0.34 0.04 0 0.345 0.04 0 0.35 0.04 0 0.355 0.04 0 0.36 0.04 0 0.365 0.04 0 0.37 0.04 0 0.375 0.04 0 0.38 0.04 0 0.385 0.04 0 0.39 0.04 0 0.395 0.04 0 0.4 0.04 0 0.405 0.04 0 0.41 0.04 0 0.415 0.04 0 0.42 0.04 0 0.425 0.04 0 0.43 0.04 0 0.435 0.04 0 0.44 0.04 0 0.445 0.04 0 0.45 0.04 0 0.455 0.04 0 0.46 0.04 0 0.465 0.04 0 0.47 0.04 0 0.475 0.04 0 0.48 0.04 0 0.485 0.04 0 0.49 0.04 0 0.495 0.04 0 0.5 0.04 0 0.505 0.04 0 0.51 0.04 0 0.515 0.04 0 0.52 0.04 0 0.525 0.04 0 0.53 0.04 0 0.535 0.04 0 0.54 0.04 0 0.545 0.04 0 0.55 0.04 0 0.555 0.04 0 0.56 0.04 0 0.565 0.04 0 0.57 0.04 0 0.575 0.04 0 0.58 0.04 0 0.585 0.04 0 0.59 0.04 0 0.595 0.04 0 0.6 0.04 0 0.605 0.04 0 0.61 0.04 0 0.615 0.04 0 0.62 0.04 0 0.625 0.04 0 0.63 0.04 0 0.635 0.04 0 0.64 0.04 0 0.645 0.04 0 0.65 0.04 0 0.655 0.04 0 0.66 0.04 0 0.665 0.04 0 0.67 0.04 0 0.675 0.04 0 0.68 0.04 0 0.685 0.04 0 0.69 0.04 0 0.695 0.04 0 0.7 0.04 0 0.705 0.04 0 0.71 0.04 0 0.715 0.04 0 0.72 0.04 0 0.725 0.04 0 0.73 0.04 0 0.735 0.04 0 0.74 0.04 0 0.745 0.04 0 0.75 0.04 0 0.755 0.04 0 0.76 0.04 0 0.765 0.04 0 0.77 0.04 0 0.775 0.04 0 0.78 0.04 0 0.785 0.04 0 0.79 0.04 0 0.795 0.04 0 0.8 0.04 0 0.805 0.04 0 0.81 0.04 0 0.815 0.04 0 0.82 0.04 0 0.825 0.04 0 0.83 0.04 0 0.835 0.04 0 0.84 0.04 0 0.845 0.04 0 0.85 0.04 0 0.855 0.04 0 0.86 0.04 0 0.865 0.04 0 0.87 0.04 0 0.875 0.04 0 0.88 0.04 0 0.885 0.04 0 0.89 0.04 0 0.895 0.04 0 0.9 0.04 0 0.905 0.04 0 0.91 0.04 0 0.915 0.04 0 0.92 0.04 0 0.925 0.04 0 0.93 0.04 0 0.935 0.04 0 0.94 0.04 0 0.945 0.04 0 0.95 0.04 0 0.955 0.04 0 0.96 0.04 0 0.965 0.04 0 0.97 0.04 0 0.975 0.04 0 0.98 0.04 0 0.985 0.04 0 0.99 0.04 0 0.995 0.04 0 1 0.04 0 0 0.06 0 0.005 0.06 0 0.01 0.06 0 0.015 0.06 0 0.02 0.06 0 0.025 0.06 0 0.03 0.06 0 0.035 0.06 0 0.04 0.06 0 0.045 0.06 0 0.05 0.06 0 0.055 0.06 0 0.06 0.06 0 0.065 0.06 0 0.07 0.06 0 0.075 0.06 0 0.08 0.06 0 0.085 0.06 0 0.09 0.06 0 0.095 0.06 0 0.1 0.06 0 0.105 0.06 0 0.11 0.06 0 0.115 0.06 0 0.12 0.06 0 0.125 0.06 0 0.13 0.06 0 0.135 0.06 0 0.14 0.06 0 0.145 0.06 0 0.15 0.06 0 0.155 0.06 0 0.16 0.06 0 0.165 0.06 0 0.17 0.06 0 0.175 0.06 0 0.18 0.06 0 0.185 0.06 0 0.19 0.06 0 0.195 0.06 0 0.2 0.06 0 0.205 0.06 0 0.21 0.06 0 0.215 0.06 0 0.22 0.06 0 0.225 0.06 0 0.23 0.06 0 0.235 0.06 0 0.24 0.06 0 0.245 0.06 0 0.25 0.06 0 0.255 0.06 0 0.26 0.06 0 0.265 0.06 0 0.27 0.06 0 0.275 0.06 0 0.28 0.06 0 0.285 0.06 0 0.29 0.06 0 0.295 0.06 0 0.3 0.06 0 0.305 0.06 0 0.31 0.06 0 0.315 0.06 0 0.32 0.06 0 0.325 0.06 0 0.33 0.06 0 0.335 0.06 0 0.34 0.06 0 0.345 0.06 0 0.35 0.06 0 0.355 0.06 0 0.36 0.06 0 0.365 0.06 0 0.37 0.06 0 0.375 0.06 0 0.38 0.06 0 0.385 0.06 0 0.39 0.06 0 0.395 0.06 0 0.4 0.06 0 0.405 0.06 0 0.41 0.06 0 0.415 0.06 0 0.42 0.06 0 0.425 0.06 0 0.43 0.06 0 0.435 0.06 0 0.44 0.06 0 0.445 0.06 0 0.45 0.06 0 0.455 0.06 0 0.46 0.06 0 0.465 0.06 0 0.47 0.06 0 0.475 0.06 0 0.48 0.06 0 0.485 0.06 0 0.49 0.06 0 0.495 0.06 0 0.5 0.06 0 0.505 0.06 0 0.51 0.06 0 0.515 0.06 0 0.52 0.06 0 0.525 0.06 0 0.53 0.06 0 0.535 0.06 0 0.54 0.06 0 0.545 0.06 0 0.55 0.06 0 0.555 0.06 0 0.56 0.06 0 0.565 0.06 0 0.57 0.06 0 0.575 0.06 0 0.58 0.06 0 0.585 0.06 0 0.59 0.06 0 0.595 0.06 0 0.6 0.06 0 0.605 0.06 0 0.61 0.06 0 0.615 0.06 0 0.62 0.06 0 0.625 0.06 0 0.63 0.06 0 0.635 0.06 0 0.64 0.06 0 0.645 0.06 0 0.65 0.06 0 0.655 0.06 0 0.66 0.06 0 0.665 0.06 0 0.67 0.06 0 0.675 0.06 0 0.68 0.06 0 0.685 0.06 0 0.69 0.06 0 0.695 0.06 0 0.7 0.06 0 0.705 0.06 0 0.71 0.06 0 0.715 0.06 0 0.72 0.06 0 0.725 0.06 0 0.73 0.06 0 0.735 0.06 0 0.74 0.06 0 0.745 0.06 0 0.75 0.06 0 0.755 0.06 0 0.76 0.06 0 0.765 0.06 0 0.77 0.06 0 0.775 0.06 0 0.78 0.06 0 0.785 0.06 0 0.79 0.06 0 0.795 0.06 0 0.8 0.06 0 0.805 0.06 0 0.81 0.06 0 0.815 0.06 0 0.82 0.06 0 0.825 0.06 0 0.83 0.06 0 0.835 0.06 0 0.84 0.06 0 0.845 0.06 0 0.85 0.06 0 0.855 0.06 0 0.86 0.06 0 0.865 0.06 0 0.87 0.06 0 0.875 0.06 0 0.88 0.06 0 0.885 0.06 0 0.89 0.06 0 0.895 0.06 0 0.9 0.06 0 0.905 0.06 0 0.91 0.06 0 0.915 0.06 0 0.92 0.06 0 0.925 0.06 0 0.93 0.06 0 0.935 0.06 0 0.94 0.06 0 0.945 0.06 0 0.95 0.06 0 0.955 0.06 0 0.96 0.06 0 0.965 0.06 0 0.97 0.06 0 0.975 0.06 0 0.98 0.06 0 0.985 0.06 0 0.99 0.06 0 0.995 0.06 0 1 0.06 0 0 0.08 0 0.005 0.08 0 0.01 0.08 0 0.015 0.08 0 0.02 0.08 0 0.025 0.08 0 0.03 0.08 0 0.035 0.08 0 0.04 0.08 0 0.045 0.08 0 0.05 0.08 0 0.055 0.08 0 0.06 0.08 0 0.065 0.08 0 0.07 0.08 0 0.075 0.08 0 0.08 0.08 0 0.085 0.08 0 0.09 0.08 0 0.095 0.08 0 0.1 0.08 0 0.105 0.08 0 0.11 0.08 0 0.115 0.08 0 0.12 0.08 0 0.125 0.08 0 0.13 0.08 0 0.135 0.08 0 0.14 0.08 0 0.145 0.08 0 0.15 0.08 0 0.155 0.08 0 0.16 0.08 0 0.165 0.08 0
[...]
			<CellData Scalars="Density">
				<DataArray Name="Density" type="Float32" format="ascii">
 1 1 1 1 1 1 1 1 1 1 1 1 1 1 1 1 1 1 1 1 1 1 1 1 1 1 1 1 1 1 1 1 1 1 1 1 1 1 0.999999 0.999999 0.999996 0.99999 0.999974 0.999934 0.999835 0.999617 0.999181 0.998386 0.997054 0.994992 0.992008 0.987945 0.982697 0.976219 0.968531 0.959698 0.949825 0.939035 0.927462 0.915237 0.902483 0.889314 0.875825 0.862098 0.8482 0.834187 0.820105 0.805998 0.791902 0.777846 0.763855 0.74995 0.736149 0.72247 0.708924 0.695525 0.682281 0.669203 0.656297 0.643573 0.631036 0.618693 0.606551 0.594616 0.582896 0.571398 0.56013 0.549103 0.538329 0.52782 0.517592 0.507667 0.498067 0.488822 0.479967 0.471543 0.463601 0.4562 0.449403 0.443282 0.437906 0.433341 0.429632 0.426802 0.424733 0.42375 0.423487 0.423243 0.423247 0.423304 0.423431 0.423548 0.423555 0.423515 0.423386 0.423151 0.422921 0.422719 0.422568 0.422503 0.422461 0.422353 0.422016 0.4215 0.420988 0.420515 0.420152 0.419894 0.41947 0.418498 0.415605 0.406131 0.378881 0.346761 0.315859 0.284976 0.259897 0.26557 0.266137 0.266313 0.266348 0.266371 0.266386 0.266386 0.266383 0.266366 0.266321 0.266278 0.266274 0.26628 0.26631 0.266362 0.266411 0.266448 0.266461 0.266462 0.266461 0.266452 0.266442 0.266361 0.266369 0.265131 0.263688 0.249572 0.220607 0.156163 0.129812 0.125729 0.125111 0.125017 0.125003 0.125 0.125 0.125 0.125 0.125 0.125 0.125 0.125 0.125 0.125 0.125 0.125 0.125 0.125 0.125 0.125 0.125 0.125 0.125 0.125 0.125 0.125 0.125 0.125 0.125 0.125 0.125 0.125 0.125 1 1 1 1 1 1 1 1 1 1 1 1 1 1 1 1 1 1 1 1 1 1 1 1 1 1 1 1 1 1 1 1 1 1 1 1 1 1 0.999999 0.999999 0.999996 0.99999 0.999974 0.999934 0.999835 0.999617 0.999181 0.998386 0.997054 0.994992 0.992008 0.987945 0.982697 0.976219 0.968531 0.959698 0.949825 0.939035 0.927462 0.915237 0.902483 0.889314 0.875825 0.862098 0.8482 0.834187 0.820105 0.805998 0.791902 0.777846 0.763855 0.74995 0.736149 0.72247 0.708924 0.695525 0.682281 0.669203 0.656297 0.643573 0.631036 0.618693 0.606551 0.594616 0.582896 0.571398 0.56013 0.549103 0.538329 0.52782 0.517592 0.507667 0.498067 0.488822 0.479967 0.471543 0.463601 0.4562 0.449403 0.443282 0.437906 0.433341 0.429632 0.426802 0.424733 0.42375 0.423487 0.423243 0.423247 0.423304 0.423431 0.423548 0.423555 0.423515 0.423386 0.423151 0.422921 0.422719 0.422568 0.422503 0.422461 0.422353 0.422016 0.4215 0.420988 0.420515 0.420152 0.419894 0.41947 0.418498 0.415605 0.406131 0.378881 0.346761 0.315859 0.284976 0.259897 0.26557 0.266137 0.266313 0.266348 0.266371 0.266386 0.266386 0.266383 0.266366 0.266321 0.266278 0.266274 0.26628 0.26631 0.266362 0.266411 0.266448 0.266461 0.266462 0.266461 0.266452 0.266442 0.266361 0.266369 0.265131 0.263688 0.249572 0.220607 0.156163 0.129812 0.125729 0.125111 0.125017 0.125003 0.125 0.125 0.125 0.125 0.125 0.125 0.125 0.125 0.125 0.125 0.125 0.125 0.125 0.125 0.125 0.125 0.125 0.125 0.125 0.125 0.125 0.125 0.125 0.125 0.125 0.125 0.125 0.125 0.125 1 1 1 1 1 1 1 1 1 1 1 1 1 1 1 1 1 1 1 1 1 1 1 1 1 1 1 1 1 1 1 1 1 1 1 1 1 1 0.999999 0.999999 0.999996 0.99999 0.999974 0.999934 0.999835 0.999617 0.999181 0.998386 0.997054 0.994992 0.992008 0.987945 0.982697 0.976219 0.968531 0.959698 0.949825 0.939035 0.927462 0.915237 0.902483 0.889314 0.875825 0.862098 0.8482 0.834187 0.820105 0.805998 0.791902 0.777846 0.763855 0.74995 0.736149 0.72247 0.708924 0.695525 0.682281 0.669203 0.656297 0.643573 0.631036 0.618693 0.606551 0.594616 0.582896 0.571398 0.56013 0.549103 0.538329 0.52782 0.517592 0.507667 0.498067 0.488822 0.479967 0.471543 0.463601 0.4562 0.449403 0.443282 0.437906 0.433341 0.429632 0.426802 0.424733 0.42375 0.423487 0.423243 0.423247 0.423304 0.423431 0.423548 0.423555 0.423515 0.423386 0.423151 0.422921 0.422719 0.422568 0.422503 0.422461 0.422353 0.422016 0.4215 0.420988 0.420515 0.420152 0.419894 0.41947 0.418498 0.415605 0.406131 0.378881 0.346761 0.315859 0.284976 0.259897 0.26557 0.266137 0.266313 0.266348 0.266371 0.266386 0.266386 0.266383 0.266366 0.266321 0.266278 0.266274 0.26628 0.26631 0.266362 0.266411 0.266448 0.266461 0.266462 0.266461 0.266452 0.266442 0.266361 0.266369 0.265131 0.263688 0.249572 0.220607 0.156163 0.129812 0.125729 0.125111 0.125017 0.125003 0.125 0.125 0.125 0.125 0.125 0.125 0.125 0.125 0.125 0.125 0.125 0.125 0.125 0.125 0.125 0.125 0.125 0.125 0.125 0.125 0.125 0.125 0.125 0.125 0.125 0.125 0.125 0.125 0.125 1 1 1 1 1 1 1 1 1 1 1 1 1 1 1 1 1 1 1 1 1 1 1 1 1 1 1 1 1 1 1 1 1 1 1 1 1 1 0.999999 0.999999 0.999996 0.99999 0.999974 0.999934 0.999835 0.999617 0.999181 0.998386 0.997054 0.994992 0.992008 0.987945 0.982697 0.976219 0.968531 0.959698 0.949825 0.939035 0.927462 0.915237 0.902483 0.889314 0.875825 0.862098 0.8482 0.834187 0.820105 0.805998 0.791902 0.777846 0.763855 0.74995 0.736149 0.72247 0.708924 0.695525 0.682281 0.669203 0.656297 0.643573 0.631036 0.618693 0.606551 0.594616 0.582896 0.571398 0.56013 0.549103 0.538329 0.52782 0.517592 0.507667 0.498067 0.488822 0.479967 0.471543 0.463601 0.4562 0.449403 0.443282 0.437906 0.433341 0.429632 0.426802 0.424733 0.42375 0.423487 0.423243 0.423247 0.423304 0.423431 0.423548 0.423555 0.423515 0.423386 0.423151 0.422921 0.422719 0.422568 0.422503 0.422461 0.422353 0.422016 0.4215 0.420988 0.420515 0.420152 0.419894 0.41947 0.418498 0.415605 0.406131 0.378881 0.346761 0.315859 0.284976 0.259897 0.26557 0.266137 0.266313 0.266348 0.266371 0.266386 0.266386 0.266383 0.266366 0.266321 0.266278 0.266274 0.26628 0.26631 0.266362 0.266411 0.266448 0.266461 0.266462 0.266461 0.266452 0.266442 0.266361 0.266369 0.265131 0.263688 0.249572 0.220607 0.156163 0.129812 0.125729 0.125111 0.125017 0.125003 0.125 0.125 0.125 0.125 0.125 0.125 0.125 0.125 0.125 0.125 0.125 0.125 0.125 0.125 0.125 0.125 0.125 0.125 0.125 0.125 0.125 0.125 0.125 0.125 0.125 0.125 0.125 0.125 0.125 1 1 1 1 1 1 1 1 1 1 1 1 1 1 1 1 1 1 1 1 1 1 1 1 1 1 1 1 1 1 1 1 1 1 1 1 1 1 0.999999 0.999999 0.999996 0.99999 0.999974 0.999934 0.999835 0.999617 0.999181 0.998386 0.997054 0.994992 0.992008 0.987945 0.982697 0.976219 0.968531 0.959698 0.949825 0.939035 0.927462 0.915237 0.902483 0.889314 0.875825 0.862098 0.8482 0.834187 0.820105 0.805998 0.791902 0.777846 0.763855 0.74995 0.736149 0.72247 0.708924 0.695525 0.682281 0.669203 0.656297 0.643573 0.631036 0.618693 0.606551 0.594616 0.582896 0.571398 0.56013 0.549103 0.538329 0.52782 0.517592 0.507667 0.498067 0.488822 0.479967 0.471543 0.463601 0.4562 0.449403 0.443282 0.437906 0.433341 0.429632 0.426802 0.424733 0.42375 0.423487 0.423243 0.423247 0.423304 0.423431 0.423548 0.423555 0.423515 0.423386 0.423151 0.422921 0.422719 0.422568 0.422503 0.422461 0.422353 0.422016 0.4215 0.420988 0.420515 0.420152 0.419894 0.41947 0.418498 0.415605 0.406131 0.378881 0.346761 0.315859 0.284976 0.259897 0.26557 0.266137 0.266313 0.266348 0.266371 0.266386 0.266386 0.266383 0.266366 0.266321 0.266278 0.266274 0.26628 0.26631 0.266362 0.266411 0.266448 0.266461 0.266462 0.266461 0.266452 0.266442 0.266361 0.266369 0.265131 0.263688 0.249572 0.220607 0.156163 0.129812 0.125729 0.125111 0.125017 0.125003 0.125 0.125 0.125 0.125 0.125 0.125 0.125 0.125 0.125 0.125 0.125 0.125 0.125 0.125 0.125 0.125 0.125 0.125 0.125 0.125 0.125 0.125 0.125 0.125 0.125 0.125 0.125 0.125 0.125
				</DataArray>
				<DataArray Name="Energy" type="Float32" format="ascii">
 2.5 2.5 2.5 2.5 2.5 2.5 2.5 2.5 2.5 2.5 2.5 2.5 2.5 2.5 2.5 2.5 2.5 2.5 2.5 2.5 2.5 2.5 2.5 2.5 2.5 2.5 2.5 2.5 2.5 2.5 2.5 2.5 2.5 2.5 2.5 2.5 2.5 2.5 2.5 2.5 2.5 2.49999 2.49997 2.49993 2.49984 2.49962 2.49918 2.49839 2.49705 2.49499 2.492 2.48792 2.48264 2.4761 2.46832 2.45934 2.44924 2.43815 2.42617 2.41343 2.40003 2.38609 2.37168 2.35689 2.34177 2.32639 2.3108 2.29502 2.27908 2.26301 2.24686 2.23063 2.21435 2.19804 2.1817 2.16537 2.14904 2.13273 2.11646 2.10023 2.08405 2.06795 2.05192 2.03598 2.02014 2.00443 1.98885 1.97343 1.95818 1.94314 1.92834 1.91381 1.8996 1.88577 1.87238 1.85951 1.84726 1.83574 1.82508 1.81542 1.80689 1.79964 1.79377 1.78934 1.78687 1.78511 1.78421 1.78484 1.7853 1.78596 1.78636 1.78656 1.787 1.78742 1.78801 1.78893 1.78981 1.79054 1.79108 1.79129 1.79146 1.79197 1.7935 1.7958 1.79813 1.80032 1.80198 1.80317 1.8051 1.80946 1.82223 1.86398 1.997 2.18425 2.40083 2.64991 2.90268 2.86379 2.84572 2.84345 2.84307 2.84283 2.84267 2.84269 2.84276 2.84298 2.84352 2.84405 2.84419 2.84419 2.84396 2.84351 2.8431 2.84279 2.84271 2.8427 2.84271 2.84274 2.84285 2.84264 2.8427 2.83742 2.83108 2.76751 2.60874 2.21837 2.03168 2.00469 2.00071 2.00011 2.00002 2 2 2 2 2 2 2 2 2 2 2 2 2 2 2 2 2 2 2 2 2 2 2 2 2 2 2 2 2 2.5 2.5 2.5 2.5 2.5 2.5 2.5 2.5 2.5 2.5 2.5 2.5 2.5 2.5 2.5 2.5 2.5 2.5 2.5 2.5 2.5 2.5 2.5 2.5 2.5 2.5 2.5 2.5 2.5 2.5 2.5 2.5 2.5 2.5 2.5 2.5 2.5 2.5 2.5 2.5 2.5 2.49999 2.49997 2.49993 2.49984 2.49962 2.49918 2.49839 2.49705 2.49499 2.492 2.48792 2.48264 2.4761 2.46832 2.45934 2.44924 2.43815 2.42617 2.41343 2.40003 2.38609 2.37168 2.35689 2.34177 2.32639 2.3108 2.29502 2.27908 2.26301 2.24686 2.23063 2.21435 2.19804 2.1817 2.16537 2.14904 2.13273 2.11646 2.10023 2.08405 2.06795 2.05192 2.03598 2.02014 2.00443 1.98885 1.97343 1.95818 1.94314 1.92834 1.91381 1.8996 1.88577 1.87238 1.85951 1.84726 1.83574 1.82508 1.81542 1.80689 1.79964 1.79377 1.78934 1.78687 1.78511 1.78421 1.78484 1.7853 1.78596 1.78636 1.78656 1.787 1.78742 1.78801 1.78893 1.78981 1.79054 1.79108 1.79129 1.79146 1.79197 1.7935 1.7958 1.79813 1.80032 1.80198 1.80317 1.8051 1.80946 1.82223 1.86398 1.997 2.18425 2.40083 2.64991 2.90268 2.86379 2.84572 2.84345 2.84307 2.84283 2.84267 2.84269 2.84276 2.84298 2.84352 2.84405 2.84419 2.84419 2.84396 2.84351 2.8431 2.84279 2.84271 2.8427 2.84271 2.84274 2.84285 2.84264 2.8427 2.83742 2.83108 2.76751 2.60874 2.21837 2.03168 2.00469 2.00071 2.00011 2.00002 2 2 2 2 2 2 2 2 2 2 2 2 2 2 2 2 2 2 2 2 2 2 2 2 2 2 2 2 2 2.5 2.5 2.5 2.5 2.5 2.5 2.5 2.5 2.5 2.5 2.5 2.5 2.5 2.5 2.5 2.5 2.5 2.5 2.5 2.5 2.5 2.5 2.5 2.5 2.5 2.5 2.5 2.5 2.5 2.5 2.5 2.5 2.5 2.5 2.5 2.5 2.5 2.5 2.5 2.5 2.5 2.49999 2.49997 2.49993 2.49984 2.49962 2.49918 2.49839 2.49705 2.49499 2.492 2.48792 2.48264 2.4761 2.46832 2.45934 2.44924 2.43815 2.42617 2.41343 2.40003 2.38609 2.37168 2.35689 2.34177 2.32639 2.3108 2.29502 2.27908 2.26301 2.24686 2.23063 2.21435 2.19804 2.1817 2.16537 2.14904 2.13273 2.11646 2.10023 2.08405 2.06795 2.05192 2.03598 2.02014 2.00443 1.98885 1.97343 1.95818 1.94314 1.92834 1.91381 1.8996 1.88577 1.87238 1.85951 1.84726 1.83574 1.82508 1.81542 1.80689 1.79964 1.79377 1.78934 1.78687 1.78511 1.78421 1.78484 1.7853 1.78596 1.78636 1.78656 1.787 1.78742 1.78801 1.78893 1.78981 1.79054 1.79108 1.79129 1.79146 1.79197 1.7935 1.7958 1.79813 1.80032 1.80198 1.80317 1.8051 1.80946 1.82223 1.86398 1.997 2.18425 2.40083 2.64991 2.90268 2.86379 2.84572 2.84345 2.84307 2.84283 2.84267 2.84269 2.84276 2.84298 2.84352 2.84405 2.84419 2.84419 2.84396 2.84351 2.8431 2.84279 2.84271 2.8427 2.84271 2.84274 2.84285 2.84264 2.8427 2.83742 2.83108 2.76751 2.60874 2.21837 2.03168 2.00469 2.00071 2.00011 2.00002 2 2 2 2 2 2 2 2 2 2 2 2 2 2 2 2 2 2 2 2 2 2 2 2 2 2 2 2 2 2.5 2.5 2.5 2.5 2.5 2.5 2.5 2.5 2.5 2.5 2.5 2.5 2.5 2.5 2.5 2.5 2.5 2.5 2.5 2.5 2.5 2.5 2.5 2.5 2.5 2.5 2.5 2.5 2.5 2.5 2.5 2.5 2.5 2.5 2.5 2.5 2.5 2.5 2.5 2.5 2.5 2.49999 2.49997 2.49993 2.49984 2.49962 2.49918 2.49839 2.49705 2.49499 2.492 2.48792 2.48264 2.4761 2.46832 2.45934 2.44924 2.43815 2.42617 2.41343 2.40003 2.38609 2.37168 2.35689 2.34177 2.32639 2.3108 2.29502 2.27908 2.26301 2.24686 2.23063 2.21435 2.19804 2.1817 2.16537 2.14904 2.13273 2.11646 2.10023 2.08405 2.06795 2.05192 2.03598 2.02014 2.00443 1.98885 1.97343 1.95818 1.94314 1.92834 1.91381 1.8996 1.88577 1.87238 1.85951 1.84726 1.83574 1.82508 1.81542 1.80689 1.79964 1.79377 1.78934 1.78687 1.78511 1.78421 1.78484 1.7853 1.78596 1.78636 1.78656 1.787 1.78742 1.78801 1.78893 1.78981 1.79054 1.79108 1.79129 1.79146 1.79197 1.7935 1.7958 1.79813 1.80032 1.80198 1.80317 1.8051 1.80946 1.82223 1.86398 1.997 2.18425 2.40083 2.64991 2.90268 2.86379 2.84572 2.84345 2.84307 2.84283 2.84267 2.84269 2.84276 2.84298 2.84352 2.84405 2.84419 2.84419 2.84396 2.84351 2.8431 2.84279 2.84271 2.8427 2.84271 2.84274 2.84285 2.84264 2.8427 2.83742 2.83108 2.76751 2.60874 2.21837 2.03168 2.00469 2.00071 2.00011 2.00002 2 2 2 2 2 2 2 2 2 2 2 2 2 2 2 2 2 2 2 2 2 2 2 2 2 2 2 2 2 2.5 2.5 2.5 2.5 2.5 2.5 2.5 2.5 2.5 2.5 2.5 2.5 2.5 2.5 2.5 2.5 2.5 2.5 2.5 2.5 2.5 2.5 2.5 2.5 2.5 2.5 2.5 2.5 2.5 2.5 2.5 2.5 2.5 2.5 2.5 2.5 2.5 2.5 2.5 2.5 2.5 2.49999 2.49997 2.49993 2.49984 2.49962 2.49918 2.49839 2.49705 2.49499 2.492 2.48792 2.48264 2.4761 2.46832 2.45934 2.44924 2.43815 2.42617 2.41343 2.40003 2.38609 2.37168 2.35689 2.34177 2.32639 2.3108 2.29502 2.27908 2.26301 2.24686 2.23063 2.21435 2.19804 2.1817 2.16537 2.14904 2.13273 2.11646 2.10023 2.08405 2.06795 2.05192 2.03598 2.02014 2.00443 1.98885 1.97343 1.95818 1.94314 1.92834 1.91381 1.8996 1.88577 1.87238 1.85951 1.84726 1.83574 1.82508 1.81542 1.80689 1.79964 1.79377 1.78934 1.78687 1.78511 1.78421 1.78484 1.7853 1.78596 1.78636 1.78656 1.787 1.78742 1.78801 1.78893 1.78981 1.79054 1.79108 1.79129 1.79146 1.79197 1.7935 1.7958 1.79813 1.80032 1.80198 1.80317 1.8051 1.80946 1.82223 1.86398 1.997 2.18425 2.40083 2.64991 2.90268 2.86379 2.84572 2.84345 2.84307 2.84283 2.84267 2.84269 2.84276 2.84298 2.84352 2.84405 2.84419 2.84419 2.84396 2.84351 2.8431 2.84279 2.84271 2.8427 2.84271 2.84274 2.84285 2.84264 2.8427 2.83742 2.83108 2.76751 2.60874 2.21837 2.03168 2.00469 2.00071 2.00011 2.00002 2 2 2 2 2 2 2 2 2 2 2 2 2 2 2 2 2 2 2 2 2 2 2 2 2 2 2 2 2
				</DataArray>
				<DataArray Name="F1" type="Float32" format="ascii">
 1 1 1 1 1 1 1 1 1 1 1 1 1 1 1 1 1 1 1 1 1 1 1 1 1 1 1 1 1 1 1 1 1 1 1 1 1 1 1 1 1 1 1 1 1 1 1 1 1 1 1 1 1 1 1 1 1 1 1 1 1 1 1 1 1 1 1 1 1 1 1 1 1 1 1 1 1 1 1 1 1 1 1 1 1 1 1 1 1 1 1 1 1 1 1 1 1 1 1 1 1 1 1 1 1 1 1 1 1 1 1 1 1 1 1 1 1 1 1 1 1 1 0.999999 0.999997 0.999989 0.999958 0.999847 0.999462 0.998159 0.993827 0.979657 0.933863 0.798662 0.60454 0.408483 0.21709 0.0501242 0.002894 0.000161435 9.1704e-06 5.22697e-07 2.97405e-08 1.69029e-09 9.59835e-11 5.44297e-12 3.06532e-13 1.64114e-14 1.13901e-15 0 0 0 0 0 0 0 0 0 0 0 0 0 0 0 0 0 0 0 0 0 0 0 0 0 0 0 0 0 0 0 0 0 0 0 0 0 0 0 0 0 0 0 0 0 0 0 0 0 0 0 0 1 1 1 1 1 1 1 1 1 1 1 1 1 1 1 1 1 1 1 1 1 1 1 1 1 1 1 1 1 1 1 1 1 1 1 1 1 1 1 1 1 1 1 1 1 1 1 1 1 1 1 1 1 1 1 1 1 1 1 1 1 1 1 1 1 1 1 1 1 1 1 1 1 1 1 1 1 1 1 1 1 1 1 1 1 1 1 1 1 1 1 1 1 1 1 1 1 1 1 1 1 1 1 1 1 1 1 1 1 1 1 1 1 1 1 1 1 1 1 1 1 1 0.999999 0.999997 0.999989 0.999958 0.999847 0.999462 0.998159 0.993827 0.979657 0.933863 0.798662 0.60454 0.408483 0.21709 0.0501242 0.002894 0.000161435 9.1704e-06 5.22697e-07 2.97405e-08 1.69029e-09 9.59835e-11 5.44297e-12 3.06532e-13 1.64114e-14 1.13901e-15 0 0 0 0 0 0 0 0 0 0 0 0 0 0 0 0 0 0 0 0 0 0 0 0 0 0 0 0 0 0 0 0 0 0 0 0 0 0 0 0 0 0 0 0 0 0 0 0 0 0 0 0 1 1 1 1 1 1 1 1 1 1 1 1 1 1 1 1 1 1 1 1 1 1 1 1 1 1 1 1 1 1 1 1 1 1 1 1 1 1 1 1 1 1 1 1 1 1 1 1 1 1 1 1 1 1 1 1 1 1 1 1 1 1 1 1 1 1 1 1 1 1 1 1 1 1 1 1 1 1 1 1 1 1 1 1 1 1 1 1 1 1 1 1 1 1 1 1 1 1 1 1 1 1 1 1 1 1 1 1 1 1 1 1 1 1 1 1 1 1 1 1 1 1 0.999999 0.999997 0.999989 0.999958 0.999847 0.999462 0.998159 0.993827 0.979657 0.933863 0.798662 0.60454 0.408483 0.21709 0.0501242 0.002894 0.000161435 9.1704e-06 5.22697e-07 2.97405e-08 1.69029e-09 9.59835e-11 5.44297e-12 3.06532e-13 1.64114e-14 1.13901e-15 0 0 0 0 0 0 0 0 0 0 0 0 0 0 0 0 0 0 0 0 0 0 0 0 0 0 0 0 0 0 0 0 0 0 0 0 0 0 0 0 0 0 0 0 0 0 0 0 0 0 0 0 1 1 1 1 1 1 1 1 1 1 1 1 1 1 1 1 1 1 1 1 1 1 1 1 1 1 1 1 1 1 1 1 1 1 1 1 1 1 1 1 1 1 1 1 1 1 1 1 1 1 1 1 1 1 1 1 1 1 1 1 1 1 1 1 1 1 1 1 1 1 1 1 1 1 1 1 1 1 1 1 1 1 1 1 1 1 1 1 1 1 1 1 1 1 1 1 1 1 1 1 1 1 1 1 1 1 1 1 1 1 1 1 1 1 1 1 1 1 1 1 1 1 0.999999 0.999997 0.999989 0.999958 0.999847 0.999462 0.998159 0.993827 0.979657 0.933863 0.798662 0.60454 0.408483 0.21709 0.0501242 0.002894 0.000161435 9.1704e-06 5.22697e-07 2.97405e-08 1.69029e-09 9.59835e-11 5.44297e-12 3.06532e-13 1.64114e-14 1.13901e-15 0 0 0 0 0 0 0 0 0 0 0 0 0 0 0 0 0 0 0 0 0 0 0 0 0 0 0 0 0 0 0 0 0 0 0 0 0 0 0 0 0 0 0 0 0 0 0 0 0 0 0 0 1 1 1 1 1 1 1 1 1 1 1 1 1 1 1 1 1 1 1 1 1 1 1 1 1 1 1 1 1 1 1 1 1 1 1 1 1 1 1 1 1 1 1 1 1 1 1 1 1 1 1 1 1 1 1 1 1 1 1 1 1 1 1 1 1 1 1 1 1 1 1 1 1 1 1 1 1 1 1 1 1 1 1 1 1 1 1 1 1 1 1 1 1 1 1 1 1 1 1 1 1 1 1 1 1 1 1 1 1 1 1 1 1 1 1 1 1 1 1 1 1 1 0.999999 0.999997 0.999989 0.999958 0.999847 0.999462 0.998159 0.993827 0.979657 0.933863 0.798662 0.60454 0.408483 0.21709 0.0501242 0.002894 0.000161435 9.1704e-06 5.22697e-07 2.97405e-08 1.69029e-09 9.59835e-11 5.44297e-12 3.06532e-13 1.64114e-14 1.13901e-15 0 0 0 0 0 0 0 0 0 0 0 0 0 0 0 0 0 0 0 0 0 0 0 0 0 0 0 0 0 0 0 0 0 0 0 0 0 0 0 0 0 0 0 0 0 0 0 0 0 0 0 0
				</DataArray>
				<DataArray Name="F2" type="Float32" format="ascii">