<?xml version="1.0"?>
<VTKFile type="PolyData">
	<PolyData>
		<Piece NumberOfPoints="1206" NumberOfPolys="1000">
			<Points>
				<DataArray type="Float32" NumberOfComponents="3" format="ascii">
 0 0 0 0.005 0 0 0.01 0 0 0.015 0 0 0.02 0 0 0.025 0 0 0.03 0 0 0.035 0 0 0.04 0 0 0.045 0 0 0.05 0 0 0.055 0 0 0.06 0 0 0.065 0 0 0.07 0 0 0.075 0 0 0.08 0 0 0.085 0 0 0.09 0 0 0.095 0 0 0.1 0 0 0.105 0 0 0.11 0 0 0.115 0 0 0.12 0 0 0.125 0 0 0.13 0 0 0.135 0 0 0.14 0 0 0.145 0 0 0.15 0 0 0.155 0 0 0.16 0 0 0.165 0 0 0.17 0 0 0.175 0 0 0.18 0 0 0.185 0 0 0.19 0 0 0.195 0 0 0.2 0 0 0.205 0 0 0.21 0 0 0.215 0 0 0.22 0 0 0.225 0 0 0.23 0 0 0.235 0 0 0.24 0 0 0.245 0 0 0.25 0 0 0.255 0 0 0.26 0 0 0.265 0 0 0.27 0 0 0.275 0 0 0.28 0 0 0.285 0 0 0.29 0 0 0.295 0 0 0.3 0 0 0.305 0 0 0.31 0 0 0.315 0 0 0.32 0 0 0.325 0 0 0.33 0 0 0.335 0 0 0.34 0 0 0.345 0 0 0.35 0 0 0.355 0 0 0.36 0 0 0.365 0 0 0.37 0 0 0.375 0 0 0.38 0 0 0.385 0 0 0.39 0 0 0.395 0 0 0.4 0 0 0.405 0 0 0.41 0 0 0.415 0 0 0.42 0 0 0.425 0 0 0.43 0 0 0.435 0 0 0.44 0 0 0.445 0 0 0.45 0 0 0.455 0 0 0.46 0 0 0.465 0 0 0.47 0 0 0.475 0 0 0.48 0 0 0.485 0 0 0.49 0 0 0.495 0 0 0.5 0 0 0.505 0 0 0.51 0 0 0.515 0 0 0.52 0 0 0.525 0 0 0.53 0 0 0.535 0 0 0.54 0 0 0.545 0 0 0.55 0 0 0.555 0 0 0.56 0 0 0.565 0 0 0.57 0 0 0.575 0 0 0.58 0 0 0.585 0 0 0.59 0 0 0.595 0 0 0.6 0 0 0.605 0 0 0.61 0 0 0.615 0 0 0.62 0 0 0.625 0 0 0.63 0 0 0.635 0 0 0.64 0 0 0.645 0 0 0.65 0 0 0.655 0 0 0.66 0 0 0.665 0 0 0.67 0 0 0.675 0 0 0.68 0 0 0.685 0 0 0.69 0 0 0.695 0 0 0.7 0 0 0.705 0 0 0.71 0 0 0.715 0 0 0.72 0 0 0.725 0 0 0.73 0 0 0.735 0 0 0.74 0 0 0.745 0 0 0.75 0 0 0.755 0 0 0.76 0 0 0.765 0 0 0.77 0 0 0.775 0 0 0.78 0 0 0.785 0 0 0.79 0 0 0.795 0 0 0.8 0 0 0.805 0 0 0.81 0 0 0.815 0 0 0.82 0 0 0.825 0 0 0.83 0 0 0.835 0 0 0.84 0 0 0.845 0 0 0.85 0 0 0.855 0 0 0.86 0 0 0.865 0 0 0.87 0 0 0.875 0 0 0.88 0 0 0.885 0 0 0.89 0 0 0.895 0 0 0.9 0 0 0.905 0 0 0.91 0 0 0.915 0 0 0.92 0 0 0.925 0 0 0.93 0 0 0.935 0 0 0.94 0 0 0.945 0 0 0.95 0 0 0.955 0 0 0.96 0 0 0.965 0 0 0.97 0 0 0.975 0 0 0.98 0 0 0.985 0 0 0.99 0 0 0.995 0 0 1 0 0 0 0.02 0 0.005 0.02 0 0.01 0.02 0 0.015 0.02 0 0.02 0.02 0 0.025 0.02 0 0.03 0.02 0 0.035 0.02 0 0.04 0.02 0 0.045 0.02 0 0.05 0.02 0 0.055 0.02 0 0.06 0.02 0 0.065 0.02 0 0.07 0.02 0 0.075 0.02 0 0.08 0.02 0 0.085 0.02 0 0.09 0.02 0 0.095 0.02 0 0.1 0.02 0 0.105 0.02 0 0.11 0.02 0 0.115 0.02 0 0.12 0.02 0 0.125 0.02 0 0.13 0.02 0 0.135 0.02 0 0.14 0.02 0 0.145 0.02 0 0.15 0.02 0 0.155 0.02 0 0.16 0.02 0 0.165 0.02 0 0.17 0.02 0 0.175 0.02 0 0.18 0.02 0 0.185 0.02 0 0.19 0.02 0 0.195 0.02 0 0.2 0.02 0 0.205 0.02 0 0.21 0.02 0 0.215 0.02 0 0.22 0.02 0 0.225 0.02 0 0.23 0.02 0 0.235 0.02 0 0.24 0.02 0 0.245 0.02 0 0.25 0.02 0 0.255 0.02 0 0.26 0.02 0 0.265 0.02 0 0.27 0.02 0 0.275 0.02 0 0.28 0.02 0 0.285 0.02 0 0.29 0.02 0 0.295 0.02 0 0.3 0.02 0 0.305 0.02 0 0.31 0.02 0 0.315 0.02 0 0.32 0.02 0 0.325 0.02 0 0.33 0.02 0 0.335 0.02 0 0.34 0.02 0 0.345 0.02 0 0.35 0.02 0 0.355 0.02 0 0.36 0.02 0 0.365 0.02 0 0.37 0.02 0 0.375 0.02 0 0.38 0.02 0 0.385 0.02 0 0.39 0.02 0 0.395 0.02 0 0.4 0.02 0 0.405 0.02 0 0.41 0.02 0 0.415 0.02 0 0.42 0.02 0 0.425 0.02 0 0.43 0.02 0 0.435 0.02 0 0.44 0.02 0 0.445 0.02 0 0.45 0.02 0 0.455 0.02 0 0.46 0.02 0 0.465 0.02 0 0.47 0.02 0 0.475 0.02 0 0.48 0.02 0 0.485 0.02 0 0.49 0.02 0 0.495 0.02 0 0.5 0.02 0 0.505 0.02 0 0.51 0.02 0 0.515 0.02 0 0.52 0.02 0 0.525 0.02 0 0.53 0.02 0 0.535 0.02 0 0.54 0.02 0 0.545 0.02 0 0.55 0.02 0 0.555 0.02 0 0.56 0.02 0 0.565 0.02 0 0.57 0.02 0 0.575 0.02 0 0.58 0.02 0 0.585 0.02 0 0.59 0.02 0 0.595 0.02 0 0.6 0.02 0 0.605 0.02 0 0.61 0.02 0 0.615 0.02 0 0.62 0.02 0 0.625 0.02 0 0.63 0.02 0 0.635 0.02 0 0.64 0.02 0 0.645 0.02 0 0.65 0.02 0 0.655 0.02 0 0.66 0.02 0 0.665 0.02 0 0.67 0.02 0 0.675 0.02 0 0.68 0.02 0 0.685 0.02 0 0.69 0.02 0 0.695 0.02 0 0.7 0.02 0 0.705 0.02 0 0.71 0.02 0 0.715 0.02 0 0.72 0.02 0 0.725 0.02 0 0.73 0.02 0 0.735 0.02 0 0.74 0.02 0 0.745 0.02 0 0.75 0.02 0 0.755 0.02 0 0.76 0.02 0 0.765 0.02 0 0.77 0.02 0 0.775 0.02 0 0.78 0.02 0 0.785 0.02 0 0.79 0.02 0 0.795 0.02 0 0.8 0.02 0 0.805 0.02 0 0.81 0.02 0 0.815 0.02 0 0.82 0.02 0 0.825 0.02 0 0.83 0.02 0 0.835 0.02 0 0.84 0.02 0 0.845 0.02 0 0.85 0.02 0 0.855 0.02 0 0.86 0.02 0 0.865 0.02 0 0.87 0.02 0 0.875 0.02 0 0.88 0.02 0 0.885 0.02 0 0.89 0.02 0 0.895 0.02 0 0.9 0.02 0 0.905 0.02 0 0.91 0.02 0 0.915 0.02 0 0.92 0.02 0 0.925 0.02 0 0.93 0.02 0 0.935 0.02 0 0.94 0.02 0 0.945 0.02 0 0.95 0.02 0 0.955 0.02 0 0.96 0.02 0 0.965 0.02 0 0.97 0.02 0 0.975 0.02 0 0.98 0.02 0 0.985 0.02 0 0.99 0.02 0 0.995 0.02 0 1 0.02 0 0 0.04 0 0.005 0.04 0 0.01 0.04 0 0.015 0.04 0 0.02 0.04 0 0.025 0.04 0 0.03 0.04 0 0.035 0.04 0 0.04 0.04 0 0.045 0.04 0 0.05 0.04 0 0.055 0.04 0 0.06 0.04 0 0.065 0.04 0 0.07 0.04 0 0.075 0.04 0 0.08 0.04 0 0.085 0.04 0 0.09 0.04 0 0.095 0.04 0 0.1 0.04 0 0.105 0.04 0 0.11 0.04 0 0.115 0.04 0 0.12 0.04 0 0.125 0.04 0 0.13 0.04 0 0.135 0.04 0 0.14 0.04 0 0.145 0.04 0 0.15 0.04 0 0.155 0.04 0 0.16 0.04 0 0.165 0.04 0 0.17 0.04 0 0.175 0.04 0 0.18 0.04 0 0.185 0.04 0 0.19 0.04 0 0.195 0.04 0 0.2 0.04 0 0.205 0.04 0 0.21 0.04 0 0.215 0.04 0 0.22 0.04 0 0.225 0.04 0 0.23 0.04 0 0.235 0.04 0 0.24 0.04 0 0.245 0.04 0 0.25 0.04 0 0.255 0.04 0 0.26 0.04 0 0.265 0.04 0 0.27 0.04 0 0.275 0.04 0 0.28 0.04 0 0.285 0.04 0 0.29 0.04 0 0.295 0.04 0 0.3 0.04 0 0.305 0.04 0 0.31 0.04 0 0.315 0.04 0 0.32 0.04 0 0.325 0.04 0 0.33 0.04 0 0.335 0.04 0 0.34 0.04 0 0.345 0.04 0 0.35 0.04 0 0.355 0.04 0 0.36 0.04 0 0.365 0.04 0 0.37 0.04 0 0.375 0.04 0 0.38 0.04 0 0.385 0.04 0 0.39 0.04 0 0.395 0.04 0 0.4 0.04 0 0.405 0.04 0 0.41 0.04 0 0.415 0.04 0 0.42 0.04 0 0.425 0.04 0 0.43 0.04 0 0.435 0.04 0 0.44 0.04 0 0.445 0.04 0 0.45 0.04 0 0.455 0.04 0 0.46 0.04 0 0.465 0.04 0 0.47 0.04 0 0.475 0.04 0 0.48 0.04 0 0.485 0.04 0 0.49 0.04 0 0.495 0.04 0 0.5 0.04 0 0.505 0.04 0 0.51 0.04 0 0.515 0.04 0 0.52 0.04 0 0.525 0.04 0 0.53 0.04 0 0.535 0.04 0 0.54 0.04 0 0.545 0.04 0 0.55 0.04 0 0.555 0.04 0 0.56 0.04 0 0.565 0.04 0 0.57 0.04 0 0.575 0.04 0 0.58 0.04 0 0.585 0.04 0 0.59 0.04 0 0.595 0.04 0 0.6 0.04 0 0.605 0.04 0 0.61 0.04 0 0.615 0.04 0 0.62 0.04 0 0.625 0.04 0 0.63 0.04 0 0.635 0.04 0 0.64 0.04 0 0.645 0.04 0 0.65 0.04 0 0.655 0.04 0 0.66 0.04 0 0.665 0.04 0 0.67 0.04 0 0.675 0.04 0 0.68 0.04 0 0.685 0.04 0 0.69 0.04 0 0.695 0.04 0 0.7 0.04 0 0.705 0.04 0 0.71 0.04 0 0.715 0.04 0 0.72 0.04 0 0.725 0.04 0 0.73 0.04 0 0.735 0.04 0 0.74 0.04 0 0.745 0.04 0 0.75 0.04 0 0.755 0.04 0 0.76 0.04 0 0.765 0.04 0 0.77 0.04 0 0.775 0.04 0 0.78 0.04 0 0.785 0.04 0 0.79 0.04 0 0.795 0.04 0 0.8 0.04 0 0.805 0.04 0 0.81 0.04 0 0.815 0.04 0 0.82 0.04 0 0.825 0.04 0 0.83 0.04 0 0.835 0.04 0 0.84 0.04 0 0.845 0.04 0 0.85 0.04 0 0.855 0.04 0 0.86 0.04 0 0.865 0.04 0 0.87 0.04 0 0.875 0.04 0 0.88 0.04 0 0.885 0.04 0 0.89 0.04 0 0.895 0.04 0 0.9 0.04 0 0.905 0.04 0 0.91 0.04 0 0.915 0.04 0 0.92 0.04 0 0.925 0.04 0 0.93 0.04 0 0.935 0.04 0 0.94 0.04 0 0.945 0.04 0 0.95 0.04 0 0.955 0.04 0 0.96 0.04 0 0.965 0.04 0 0.97 0.04 0 0.975 0.04 0 0.98 0.04 0 0.985 0.04 0 0.99 0.04 0 0.995 0.04 0 1 0.04 0 0 0.06 0 0.005 0.06 0 0.01 0.06 0 0.015 0.06 0 0.02 0.06 0 0.025 0.06 0 0.03 0.06 0 0.035 0.06 0 0.04 0.06 0 0.045 0.06 0 0.05 0.06 0 0.055 0.06 0 0.06 0.06 0 0.065 0.06 0 0.07 0.06 0 0.075 0.06 0 0.08 0.06 0 0.085 0.06 0 0.09 0.06 0 0.095 0.06 0 0.1 0.06 0 0.105 0.06 0 0.11 0.06 0 0.115 0.06 0 0.12 0.06 0 0.125 0.06 0 0.13 0.06 0 0.135 0.06 0 0.14 0.06 0 0.145 0.06 0 0.15 0.06 0 0.155 0.06 0 0.16 0.06 0 0.165 0.06 0 0.17 0.06 0 0.175 0.06 0 0.18 0.06 0 0.185 0.06 0 0.19 0.06 0 0.195 0.06 0 0.2 0.06 0 0.205 0.06 0 0.21 0.06 0 0.215 0.06 0 0.22 0.06 0 0.225 0.06 0 0.23 0.06 0 0.235 0.06 0 0.24 0.06 0 0.245 0.06 0 0.25 0.06 0 0.255 0.06 0 0.26 0.06 0 0.265 0.06 0 0.27 0.06 0 0.275 0.06 0 0.28 0.06 0 0.285 0.06 0 0.29 0.06 0 0.295 0.06 0 0.3 0.06 0 0.305 0.06 0 0.31 0.06 0 0.315 0.06 0 0.32 0.06 0 0.325 0.06 0 0.33 0.06 0 0.335 0.06 0 0.34 0.06 0 0.345 0.06 0 0.35 0.06 0 0.355 0.06 0 0.36 0.06 0 0.365 0.06 0 0.37 0.06 0 0.375 0.06 0 0.38 0.06 0 0.385 0.06 0 0.39 0.06 0 0.395 0.06 0 0.4 0.06 0 0.405 0.06 0 0.41 0.06 0 0.415 0.06 0 0.42 0.06 0 0.425 0.06 0 0.43 0.06 0 0.435 0.06 0 0.44 0.06 0 0.445 0.06 0 0.45 0.06 0 0.455 0.06 0 0.46 0.06 0 0.465 0.06 0 0.47 0.06 0 0.475 0.06 0 0.48 0.06 0 0.485 0.06 0 0.49 0.06 0 0.495 0.06 0 0.5 0.06 0 0.505 0.06 0 0.51 0.06 0 0.515 0.06 0 0.52 0.06 0 0.525 0.06 0 0.53 0.06 0 0.535 0.06 0 0.54 0.06 0 0.545 0.06 0 0.55 0.06 0 0.555 0.06 0 0.56 0.06 0 0.565 0.06 0 0.57 0.06 0 0.575 0.06 0 0.58 0.06 0 0.585 0.06 0 0.59 0.06 0 0.595 0.06 0 0.6 0.06 0 0.605 0.06 0 0.61 0.06 0 0.615 0.06 0 0.62 0.06 0 0.625 0.06 0 0.63 0.06 0 0.635 0.06 0 0.64 0.06 0 0.645 0.06 0 0.65 0.06 0 0.655 0.06 0 0.66 0.06 0 0.665 0.06 0 0.67 0.06 0 0.675 0.06 0 0.68 0.06 0 0.685 0.06 0 0.69 0.06 0 0.695 0.06 0 0.7 0.06 0 0.705 0.06 0 0.71 0.06 0 0.715 0.06 0 0.72 0.06 0 0.725 0.06 0 0.73 0.06 0 0.735 0.06 0 0.74 0.06 0 0.745 0.06 0 0.75 0.06 0 0.755 0.06 0 0.76 0.06 0 0.765 0.06 0 0.77 0.06 0 0.775 0.06 0 0.78 0.06 0 0.785 0.06 0 0.79 0.06 0 0.795 0.06 0 0.8 0.06 0 0.805 0.06 0 0.81 0.06 0 0.815 0.06 0 0.82 0.06 0 0.825 0.06 0 0.83 0.06 0 0.835 0.06 0 0.84 0.06 0 0.845 0.06 0 0.85 0.06 0 0.855 0.06 0 0.86 0.06 0 0.865 0.06 0 0.87 0.06 0 0.875 0.06 0 0.88 0.06 0 0.885 0.06 0 0.89 0.06 0 0.895 0.06 0 0.9 0.06 0 0.905 0.06 0 0.91 0.06 0 0.915 0.06 0 0.92 0.06 0 0.925 0.06 0 0.93 0.06 0 0.935 0.06 0 0.94 0.06 0 0.945 0.06 0 0.95 0.06 0 0.955 0.06 0 0.96 0.06 0 0.965 0.06 0 0.97 0.06 0 0.975 0.06 0 0.98 0.06 0 0.985 0.06 0 0.99 0.06 0 0.995 0.06 0 1 0.06 0 0 0.08 0 0.005 0.08 0 0.01 0.08 0 0.015 0.08 0 0.02 0.08 0 0.025 0.08 0 0.03 0.08 0 0.035 0.08 0 0.04 0.08 0 0.045 0.08 0 0.05 0.08 0 0.055 0.08 0 0.06 0.08 0 0.065 0.08 0 0.07 0.08 0 0.075 0.08 0 0.08 0.08 0 0.085 0.08 0 0.09 0.08 0 0.095 0.08 0 0.1 0.08 0 0.105 0.08 0 0.11 0.08 0 0.115 0.08 0 0.12 0.08 0 0.125 0.08 0 0.13 0.08 0 0.135 0.08 0 0.14 0.08 0 0.145 0.08 0 0.15 0.08 0 0.155 0.08 0 0.16 0.08 0 0.165 0.08 0
[...]
			<CellData Scalars="Density">
				<DataArray Name="Density" type="Float32" format="ascii">
 1 1 1 1 1 1 1 1 1 1 1 1 1 1 1 1 1 1 1 1 1 1 1 1 1 1 1 1 1 1 1 1 1 1 1 1 0.999999 0.999997 0.999992 0.99998 0.999948 0.999871 0.9997 0.999356 0.998723 0.997651 0.995967 0.993496 0.990081 0.985605 0.980003 0.973267 0.965434 0.956584 0.946818 0.936253 0.925007 0.913197 0.900932 0.888305 0.875404 0.862292 0.849032 0.835672 0.822251 0.808807 0.795374 0.781975 0.768633 0.755366 0.742191 0.729123 0.716173 0.703352 0.690668 0.678131 0.665746 0.65352 0.64146 0.629571 0.617858 0.606327 0.594982 0.583831 0.572878 0.562132 0.5516 0.541292 0.531218 0.521391 0.511827 0.502546 0.49357 0.484926 0.476648 0.468776 0.461356 0.454442 0.448095 0.442377 0.437354 0.433083 0.42961 0.426945 0.425037 0.423835 0.423586 0.423455 0.423488 0.423521 0.423548 0.423579 0.423622 0.423614 0.42358 0.423504 0.423317 0.423093 0.42288 0.422698 0.422568 0.422521 0.42248 0.422361 0.421999 0.421484 0.420979 0.420528 0.420188 0.419904 0.419397 0.418198 0.414687 0.403336 0.374101 0.343249 0.313105 0.283049 0.259553 0.265889 0.266194 0.266336 0.266363 0.26638 0.266382 0.266381 0.266375 0.266353 0.266306 0.266268 0.266266 0.266272 0.266301 0.26635 0.266397 0.266434 0.266453 0.266458 0.266458 0.266456 0.266448 0.266434 0.266424 0.266341 0.266052 0.264822 0.259447 0.240471 0.193025 0.138973 0.127095 0.125319 0.125049 0.125007 0.125001 0.125 0.125 0.125 0.125 0.125 0.125 0.125 0.125 0.125 0.125 0.125 0.125 0.125 0.125 0.125 0.125 0.125 0.125 0.125 0.125 0.125 0.125 0.125 0.125 0.125 1 1 1 1 1 1 1 1 1 1 1 1 1 1 1 1 1 1 1 1 1 1 1 1 1 1 1 1 1 1 1 1 1 1 1 1 0.999999 0.999997 0.999992 0.99998 0.999948 0.999871 0.9997 0.999356 0.998723 0.997651 0.995967 0.993496 0.990081 0.985605 0.980003 0.973267 0.965434 0.956584 0.946818 0.936253 0.925007 0.913197 0.900932 0.888305 0.875404 0.862292 0.849032 0.835672 0.822251 0.808807 0.795374 0.781975 0.768633 0.755366 0.742191 0.729123 0.716173 0.703352 0.690668 0.678131 0.665746 0.65352 0.64146 0.629571 0.617858 0.606327 0.594982 0.583831 0.572878 0.562132 0.5516 0.541292 0.531218 0.521391 0.511827 0.502546 0.49357 0.484926 0.476648 0.468776 0.461356 0.454442 0.448095 0.442377 0.437354 0.433083 0.42961 0.426945 0.425037 0.423835 0.423586 0.423455 0.423488 0.423521 0.423548 0.423579 0.423622 0.423614 0.42358 0.423504 0.423317 0.423093 0.42288 0.422698 0.422568 0.422521 0.42248 0.422361 0.421999 0.421484 0.420979 0.420528 0.420188 0.419904 0.419397 0.418198 0.414687 0.403336 0.374101 0.343249 0.313105 0.283049 0.259553 0.265889 0.266194 0.266336 0.266363 0.26638 0.266382 0.266381 0.266375 0.266353 0.266306 0.266268 0.266266 0.266272 0.266301 0.26635 0.266397 0.266434 0.266453 0.266458 0.266458 0.266456 0.266448 0.266434 0.266424 0.266341 0.266052 0.264822 0.259447 0.240471 0.193025 0.138973 0.127095 0.125319 0.125049 0.125007 0.125001 0.125 0.125 0.125 0.125 0.125 0.125 0.125 0.125 0.125 0.125 0.125 0.125 0.125 0.125 0.125 0.125 0.125 0.125 0.125 0.125 0.125 0.125 0.125 0.125 0.125 1 1 1 1 1 1 1 1 1 1 1 1 1 1 1 1 1 1 1 1 1 1 1 1 1 1 1 1 1 1 1 1 1 1 1 1 0.999999 0.999997 0.999992 0.99998 0.999948 0.999871 0.9997 0.999356 0.998723 0.997651 0.995967 0.993496 0.990081 0.985605 0.980003 0.973267 0.965434 0.956584 0.946818 0.936253 0.925007 0.913197 0.900932 0.888305 0.875404 0.862292 0.849032 0.835672 0.822251 0.808807 0.795374 0.781975 0.768633 0.755366 0.742191 0.729123 0.716173 0.703352 0.690668 0.678131 0.665746 0.65352 0.64146 0.629571 0.617858 0.606327 0.594982 0.583831 0.572878 0.562132 0.5516 0.541292 0.531218 0.521391 0.511827 0.502546 0.49357 0.484926 0.476648 0.468776 0.461356 0.454442 0.448095 0.442377 0.437354 0.433083 0.42961 0.426945 0.425037 0.423835 0.423586 0.423455 0.423488 0.423521 0.423548 0.423579 0.423622 0.423614 0.42358 0.423504 0.423317 0.423093 0.42288 0.422698 0.422568 0.422521 0.42248 0.422361 0.421999 0.421484 0.420979 0.420528 0.420188 0.419904 0.419397 0.418198 0.414687 0.403336 0.374101 0.343249 0.313105 0.283049 0.259553 0.265889 0.266194 0.266336 0.266363 0.26638 0.266382 0.266381 0.266375 0.266353 0.266306 0.266268 0.266266 0.266272 0.266301 0.26635 0.266397 0.266434 0.266453 0.266458 0.266458 0.266456 0.266448 0.266434 0.266424 0.266341 0.266052 0.264822 0.259447 0.240471 0.193025 0.138973 0.127095 0.125319 0.125049 0.125007 0.125001 0.125 0.125 0.125 0.125 0.125 0.125 0.125 0.125 0.125 0.125 0.125 0.125 0.125 0.125 0.125 0.125 0.125 0.125 0.125 0.125 0.125 0.125 0.125 0.125 0.125 1 1 1 1 1 1 1 1 1 1 1 1 1 1 1 1 1 1 1 1 1 1 1 1 1 1 1 1 1 1 1 1 1 1 1 1 0.999999 0.999997 0.999992 0.99998 0.999948 0.999871 0.9997 0.999356 0.998723 0.997651 0.995967 0.993496 0.990081 0.985605 0.980003 0.973267 0.965434 0.956584 0.946818 0.936253 0.925007 0.913197 0.900932 0.888305 0.875404 0.862292 0.849032 0.835672 0.822251 0.808807 0.795374 0.781975 0.768633 0.755366 0.742191 0.729123 0.716173 0.703352 0.690668 0.678131 0.665746 0.65352 0.64146 0.629571 0.617858 0.606327 0.594982 0.583831 0.572878 0.562132 0.5516 0.541292 0.531218 0.521391 0.511827 0.502546 0.49357 0.484926 0.476648 0.468776 0.461356 0.454442 0.448095 0.442377 0.437354 0.433083 0.42961 0.426945 0.425037 0.423835 0.423586 0.423455 0.423488 0.423521 0.423548 0.423579 0.423622 0.423614 0.42358 0.423504 0.423317 0.423093 0.42288 0.422698 0.422568 0.422521 0.42248 0.422361 0.421999 0.421484 0.420979 0.420528 0.420188 0.419904 0.419397 0.418198 0.414687 0.403336 0.374101 0.343249 0.313105 0.283049 0.259553 0.265889 0.266194 0.266336 0.266363 0.26638 0.266382 0.266381 0.266375 0.266353 0.266306 0.266268 0.266266 0.266272 0.266301 0.26635 0.266397 0.266434 0.266453 0.266458 0.266458 0.266456 0.266448 0.266434 0.266424 0.266341 0.266052 0.264822 0.259447 0.240471 0.193025 0.138973 0.127095 0.125319 0.125049 0.125007 0.125001 0.125 0.125 0.125 0.125 0.125 0.125 0.125 0.125 0.125 0.125 0.125 0.125 0.125 0.125 0.125 0.125 0.125 0.125 0.125 0.125 0.125 0.125 0.125 0.125 0.125 1 1 1 1 1 1 1 1 1 1 1 1 1 1 1 1 1 1 1 1 1 1 1 1 1 1 1 1 1 1 1 1 1 1 1 1 0.999999 0.999997 0.999992 0.99998 0.999948 0.999871 0.9997 0.999356 0.998723 0.997651 0.995967 0.993496 0.990081 0.985605 0.980003 0.973267 0.965434 0.956584 0.946818 0.936253 0.925007 0.913197 0.900932 0.888305 0.875404 0.862292 0.849032 0.835672 0.822251 0.808807 0.795374 0.781975 0.768633 0.755366 0.742191 0.729123 0.716173 0.703352 0.690668 0.678131 0.665746 0.65352 0.64146 0.629571 0.617858 0.606327 0.594982 0.583831 0.572878 0.562132 0.5516 0.541292 0.531218 0.521391 0.511827 0.502546 0.49357 0.484926 0.476648 0.468776 0.461356 0.454442 0.448095 0.442377 0.437354 0.433083 0.42961 0.426945 0.425037 0.423835 0.423586 0.423455 0.423488 0.423521 0.423548 0.423579 0.423622 0.423614 0.42358 0.423504 0.423317 0.423093 0.42288 0.422698 0.422568 0.422521 0.42248 0.422361 0.421999 0.421484 0.420979 0.420528 0.420188 0.419904 0.419397 0.418198 0.414687 0.403336 0.374101 0.343249 0.313105 0.283049 0.259553 0.265889 0.266194 0.266336 0.266363 0.26638 0.266382 0.266381 0.266375 0.266353 0.266306 0.266268 0.266266 0.266272 0.266301 0.26635 0.266397 0.266434 0.266453 0.266458 0.266458 0.266456 0.266448 0.266434 0.266424 0.266341 0.266052 0.264822 0.259447 0.240471 0.193025 0.138973 0.127095 0.125319 0.125049 0.125007 0.125001 0.125 0.125 0.125 0.125 0.125 0.125 0.125 0.125 0.125 0.125 0.125 0.125 0.125 0.125 0.125 0.125 0.125 0.125 0.125 0.125 0.125 0.125 0.125 0.125 0.125
				</DataArray>
				<DataArray Name="Energy" type="Float32" format="ascii">
 2.5 2.5 2.5 2.5 2.5 2.5 2.5 2.5 2.5 2.5 2.5 2.5 2.5 2.5 2.5 2.5 2.5 2.5 2.5 2.5 2.5 2.5 2.5 2.5 2.5 2.5 2.5 2.5 2.5 2.5 2.5 2.5 2.5 2.5 2.5 2.5 2.5 2.5 2.49999 2.49998 2.49995 2.49987 2.4997 2.49936 2.49872 2.49765 2.49596 2.49349 2.49006 2.48557 2.47992 2.47312 2.46517 2.45615 2.44615 2.43527 2.42361 2.41128 2.39837 2.38499 2.3712 2.35706 2.34264 2.32798 2.31312 2.2981 2.28294 2.26766 2.2523 2.23687 2.22138 2.20587 2.19033 2.17479 2.15924 2.14372 2.12821 2.11274 2.09731 2.08194 2.06662 2.05138 2.03622 2.02115 2.00619 1.99134 1.97663 1.96208 1.9477 1.93352 1.91956 1.90588 1.89251 1.8795 1.86691 1.85483 1.84334 1.83255 1.82256 1.81351 1.80553 1.79873 1.79322 1.78904 1.78617 1.78528 1.78428 1.78436 1.78455 1.78515 1.78583 1.78634 1.78658 1.78685 1.78713 1.78744 1.78813 1.78897 1.78978 1.79052 1.79109 1.79137 1.79164 1.79226 1.79388 1.79613 1.79836 1.8004 1.80189 1.80314 1.80542 1.81073 1.82626 1.87667 2.02252 2.20719 2.42193 2.66771 2.90647 2.86026 2.84515 2.8432 2.84291 2.84271 2.84267 2.84269 2.84276 2.84302 2.84355 2.84401 2.8441 2.84409 2.84387 2.84343 2.84303 2.84273 2.84263 2.84267 2.84273 2.84276 2.84285 2.84293 2.84298 2.84264 2.8414 2.8361 2.81275 2.7207 2.45403 2.09397 2.01358 2.00205 2.00031 2.00005 2.00001 2 2 2 2 2 2 2 2 2 2 2 2 2 2 2 2 2 2 2 2 2 2 2 2 2 2.5 2.5 2.5 2.5 2.5 2.5 2.5 2.5 2.5 2.5 2.5 2.5 2.5 2.5 2.5 2.5 2.5 2.5 2.5 2.5 2.5 2.5 2.5 2.5 2.5 2.5 2.5 2.5 2.5 2.5 2.5 2.5 2.5 2.5 2.5 2.5 2.5 2.5 2.49999 2.49998 2.49995 2.49987 2.4997 2.49936 2.49872 2.49765 2.49596 2.49349 2.49006 2.48557 2.47992 2.47312 2.46517 2.45615 2.44615 2.43527 2.42361 2.41128 2.39837 2.38499 2.3712 2.35706 2.34264 2.32798 2.31312 2.2981 2.28294 2.26766 2.2523 2.23687 2.22138 2.20587 2.19033 2.17479 2.15924 2.14372 2.12821 2.11274 2.09731 2.08194 2.06662 2.05138 2.03622 2.02115 2.00619 1.99134 1.97663 1.96208 1.9477 1.93352 1.91956 1.90588 1.89251 1.8795 1.86691 1.85483 1.84334 1.83255 1.82256 1.81351 1.80553 1.79873 1.79322 1.78904 1.78617 1.78528 1.78428 1.78436 1.78455 1.78515 1.78583 1.78634 1.78658 1.78685 1.78713 1.78744 1.78813 1.78897 1.78978 1.79052 1.79109 1.79137 1.79164 1.79226 1.79388 1.79613 1.79836 1.8004 1.80189 1.80314 1.80542 1.81073 1.82626 1.87667 2.02252 2.20719 2.42193 2.66771 2.90647 2.86026 2.84515 2.8432 2.84291 2.84271 2.84267 2.84269 2.84276 2.84302 2.84355 2.84401 2.8441 2.84409 2.84387 2.84343 2.84303 2.84273 2.84263 2.84267 2.84273 2.84276 2.84285 2.84293 2.84298 2.84264 2.8414 2.8361 2.81275 2.7207 2.45403 2.09397 2.01358 2.00205 2.00031 2.00005 2.00001 2 2 2 2 2 2 2 2 2 2 2 2 2 2 2 2 2 2 2 2 2 2 2 2 2 2.5 2.5 2.5 2.5 2.5 2.5 2.5 2.5 2.5 2.5 2.5 2.5 2.5 2.5 2.5 2.5 2.5 2.5 2.5 2.5 2.5 2.5 2.5 2.5 2.5 2.5 2.5 2.5 2.5 2.5 2.5 2.5 2.5 2.5 2.5 2.5 2.5 2.5 2.49999 2.49998 2.49995 2.49987 2.4997 2.49936 2.49872 2.49765 2.49596 2.49349 2.49006 2.48557 2.47992 2.47312 2.46517 2.45615 2.44615 2.43527 2.42361 2.41128 2.39837 2.38499 2.3712 2.35706 2.34264 2.32798 2.31312 2.2981 2.28294 2.26766 2.2523 2.23687 2.22138 2.20587 2.19033 2.17479 2.15924 2.14372 2.12821 2.11274 2.09731 2.08194 2.06662 2.05138 2.03622 2.02115 2.00619 1.99134 1.97663 1.96208 1.9477 1.93352 1.91956 1.90588 1.89251 1.8795 1.86691 1.85483 1.84334 1.83255 1.82256 1.81351 1.80553 1.79873 1.79322 1.78904 1.78617 1.78528 1.78428 1.78436 1.78455 1.78515 1.78583 1.78634 1.78658 1.78685 1.78713 1.78744 1.78813 1.78897 1.78978 1.79052 1.79109 1.79137 1.79164 1.79226 1.79388 1.79613 1.79836 1.8004 1.80189 1.80314 1.80542 1.81073 1.82626 1.87667 2.02252 2.20719 2.42193 2.66771 2.90647 2.86026 2.84515 2.8432 2.84291 2.84271 2.84267 2.84269 2.84276 2.84302 2.84355 2.84401 2.8441 2.84409 2.84387 2.84343 2.84303 2.84273 2.84263 2.84267 2.84273 2.84276 2.84285 2.84293 2.84298 2.84264 2.8414 2.8361 2.81275 2.7207 2.45403 2.09397 2.01358 2.00205 2.00031 2.00005 2.00001 2 2 2 2 2 2 2 2 2 2 2 2 2 2 2 2 2 2 2 2 2 2 2 2 2 2.5 2.5 2.5 2.5 2.5 2.5 2.5 2.5 2.5 2.5 2.5 2.5 2.5 2.5 2.5 2.5 2.5 2.5 2.5 2.5 2.5 2.5 2.5 2.5 2.5 2.5 2.5 2.5 2.5 2.5 2.5 2.5 2.5 2.5 2.5 2.5 2.5 2.5 2.49999 2.49998 2.49995 2.49987 2.4997 2.49936 2.49872 2.49765 2.49596 2.49349 2.49006 2.48557 2.47992 2.47312 2.46517 2.45615 2.44615 2.43527 2.42361 2.41128 2.39837 2.38499 2.3712 2.35706 2.34264 2.32798 2.31312 2.2981 2.28294 2.26766 2.2523 2.23687 2.22138 2.20587 2.19033 2.17479 2.15924 2.14372 2.12821 2.11274 2.09731 2.08194 2.06662 2.05138 2.03622 2.02115 2.00619 1.99134 1.97663 1.96208 1.9477 1.93352 1.91956 1.90588 1.89251 1.8795 1.86691 1.85483 1.84334 1.83255 1.82256 1.81351 1.80553 1.79873 1.79322 1.78904 1.78617 1.78528 1.78428 1.78436 1.78455 1.78515 1.78583 1.78634 1.78658 1.78685 1.78713 1.78744 1.78813 1.78897 1.78978 1.79052 1.79109 1.79137 1.79164 1.79226 1.79388 1.79613 1.79836 1.8004 1.80189 1.80314 1.80542 1.81073 1.82626 1.87667 2.02252 2.20719 2.42193 2.66771 2.90647 2.86026 2.84515 2.8432 2.84291 2.84271 2.84267 2.84269 2.84276 2.84302 2.84355 2.84401 2.8441 2.84409 2.84387 2.84343 2.84303 2.84273 2.84263 2.84267 2.84273 2.84276 2.84285 2.84293 2.84298 2.84264 2.8414 2.8361 2.81275 2.7207 2.45403 2.09397 2.01358 2.00205 2.00031 2.00005 2.00001 2 2 2 2 2 2 2 2 2 2 2 2 2 2 2 2 2 2 2 2 2 2 2 2 2 2.5 2.5 2.5 2.5 2.5 2.5 2.5 2.5 2.5 2.5 2.5 2.5 2.5 2.5 2.5 2.5 2.5 2.5 2.5 2.5 2.5 2.5 2.5 2.5 2.5 2.5 2.5 2.5 2.5 2.5 2.5 2.5 2.5 2.5 2.5 2.5 2.5 2.5 2.49999 2.49998 2.49995 2.49987 2.4997 2.49936 2.49872 2.49765 2.49596 2.49349 2.49006 2.48557 2.47992 2.47312 2.46517 2.45615 2.44615 2.43527 2.42361 2.41128 2.39837 2.38499 2.3712 2.35706 2.34264 2.32798 2.31312 2.2981 2.28294 2.26766 2.2523 2.23687 2.22138 2.20587 2.19033 2.17479 2.15924 2.14372 2.12821 2.11274 2.09731 2.08194 2.06662 2.05138 2.03622 2.02115 2.00619 1.99134 1.97663 1.96208 1.9477 1.93352 1.91956 1.90588 1.89251 1.8795 1.86691 1.85483 1.84334 1.83255 1.82256 1.81351 1.80553 1.79873 1.79322 1.78904 1.78617 1.78528 1.78428 1.78436 1.78455 1.78515 1.78583 1.78634 1.78658 1.78685 1.78713 1.78744 1.78813 1.78897 1.78978 1.79052 1.79109 1.79137 1.79164 1.79226 1.79388 1.79613 1.79836 1.8004 1.80189 1.80314 1.80542 1.81073 1.82626 1.87667 2.02252 2.20719 2.42193 2.66771 2.90647 2.86026 2.84515 2.8432 2.84291 2.84271 2.84267 2.84269 2.84276 2.84302 2.84355 2.84401 2.8441 2.84409 2.84387 2.84343 2.84303 2.84273 2.84263 2.84267 2.84273 2.84276 2.84285 2.84293 2.84298 2.84264 2.8414 2.8361 2.81275 2.7207 2.45403 2.09397 2.01358 2.00205 2.00031 2.00005 2.00001 2 2 2 2 2 2 2 2 2 2 2 2 2 2 2 2 2 2 2 2 2 2 2 2 2
				</DataArray>
				<DataArray Name="F1" type="Float32" format="ascii">
 1 1 1 1 1 1 1 1 1 1 1 1 1 1 1 1 1 1 1 1 1 1 1 1 1 1 1 1 1 1 1 1 1 1 1 1 1 1 1 1 1 1 1 1 1 1 1 1 1 1 1 1 1 1 1 1 1 1 1 1 1 1 1 1 1 1 1 1 1 1 1 1 1 1 1 1 1 1 1 1 1 1 1 1 1 1 1 1 1 1 1 1 1 1 1 1 1 1 1 1 1 1 1 1 1 1 1 1 1 1 1 1 1 1 1 1 1 1 1 1 1 1 1 1 0.999999 0.999996 0.999985 0.999946 0.999807 0.999334 0.997748 0.992524 0.975538 0.920886 0.771699 0.580882 0.389352 0.202961 0.0435299 0.00245486 0.000137197 7.8276e-06 4.47067e-07 2.54746e-08 1.45009e-09 8.24834e-11 4.6855e-12 2.63766e-13 1.43265e-14 1.01926e-15 0 0 0 0 0 0 0 0 0 0 0 0 0 0 0 0 0 0 0 0 0 0 0 0 0 0 0 0 0 0 0 0 0 0 0 0 0 0 0 0 0 0 0 0 0 0 0 0 0 0 1 1 1 1 1 1 1 1 1 1 1 1 1 1 1 1 1 1 1 1 1 1 1 1 1 1 1 1 1 1 1 1 1 1 1 1 1 1 1 1 1 1 1 1 1 1 1 1 1 1 1 1 1 1 1 1 1 1 1 1 1 1 1 1 1 1 1 1 1 1 1 1 1 1 1 1 1 1 1 1 1 1 1 1 1 1 1 1 1 1 1 1 1 1 1 1 1 1 1 1 1 1 1 1 1 1 1 1 1 1 1 1 1 1 1 1 1 1 1 1 1 1 1 1 0.999999 0.999996 0.999985 0.999946 0.999807 0.999334 0.997748 0.992524 0.975538 0.920886 0.771699 0.580882 0.389352 0.202961 0.0435299 0.00245486 0.000137197 7.8276e-06 4.47067e-07 2.54746e-08 1.45009e-09 8.24834e-11 4.6855e-12 2.63766e-13 1.43265e-14 1.01926e-15 0 0 0 0 0 0 0 0 0 0 0 0 0 0 0 0 0 0 0 0 0 0 0 0 0 0 0 0 0 0 0 0 0 0 0 0 0 0 0 0 0 0 0 0 0 0 0 0 0 0 1 1 1 1 1 1 1 1 1 1 1 1 1 1 1 1 1 1 1 1 1 1 1 1 1 1 1 1 1 1 1 1 1 1 1 1 1 1 1 1 1 1 1 1 1 1 1 1 1 1 1 1 1 1 1 1 1 1 1 1 1 1 1 1 1 1 1 1 1 1 1 1 1 1 1 1 1 1 1 1 1 1 1 1 1 1 1 1 1 1 1 1 1 1 1 1 1 1 1 1 1 1 1 1 1 1 1 1 1 1 1 1 1 1 1 1 1 1 1 1 1 1 1 1 0.999999 0.999996 0.999985 0.999946 0.999807 0.999334 0.997748 0.992524 0.975538 0.920886 0.771699 0.580882 0.389352 0.202961 0.0435299 0.00245486 0.000137197 7.8276e-06 4.47067e-07 2.54746e-08 1.45009e-09 8.24834e-11 4.6855e-12 2.63766e-13 1.43265e-14 1.01926e-15 0 0 0 0 0 0 0 0 0 0 0 0 0 0 0 0 0 0 0 0 0 0 0 0 0 0 0 0 0 0 0 0 0 0 0 0 0 0 0 0 0 0 0 0 0 0 0 0 0 0 1 1 1 1 1 1 1 1 1 1 1 1 1 1 1 1 1 1 1 1 1 1 1 1 1 1 1 1 1 1 1 1 1 1 1 1 1 1 1 1 1 1 1 1 1 1 1 1 1 1 1 1 1 1 1 1 1 1 1 1 1 1 1 1 1 1 1 1 1 1 1 1 1 1 1 1 1 1 1 1 1 1 1 1 1 1 1 1 1 1 1 1 1 1 1 1 1 1 1 1 1 1 1 1 1 1 1 1 1 1 1 1 1 1 1 1 1 1 1 1 1 1 1 1 0.999999 0.999996 0.999985 0.999946 0.999807 0.999334 0.997748 0.992524 0.975538 0.920886 0.771699 0.580882 0.389352 0.202961 0.0435299 0.00245486 0.000137197 7.8276e-06 4.47067e-07 2.54746e-08 1.45009e-09 8.24834e-11 4.6855e-12 2.63766e-13 1.43265e-14 1.01926e-15 0 0 0 0 0 0 0 0 0 0 0 0 0 0 0 0 0 0 0 0 0 0 0 0 0 0 0 0 0 0 0 0 0 0 0 0 0 0 0 0 0 0 0 0 0 0 0 0 0 0 1 1 1 1 1 1 1 1 1 1 1 1 1 1 1 1 1 1 1 1 1 1 1 1 1 1 1 1 1 1 1 1 1 1 1 1 1 1 1 1 1 1 1 1 1 1 1 1 1 1 1 1 1 1 1 1 1 1 1 1 1 1 1 1 1 1 1 1 1 1 1 1 1 1 1 1 1 1 1 1 1 1 1 1 1 1 1 1 1 1 1 1 1 1 1 1 1 1 1 1 1 1 1 1 1 1 1 1 1 1 1 1 1 1 1 1 1 1 1 1 1 1 1 1 0.999999 0.999996 0.999985 0.999946 0.999807 0.999334 0.997748 0.992524 0.975538 0.920886 0.771699 0.580882 0.389352 0.202961 0.0435299 0.00245486 0.000137197 7.8276e-06 4.47067e-07 2.54746e-08 1.45009e-09 8.24834e-11 4.6855e-12 2.63766e-13 1.43265e-14 1.01926e-15 0 0 0 0 0 0 0 0 0 0 0 0 0 0 0 0 0 0 0 0 0 0 0 0 0 0 0 0 0 0 0 0 0 0 0 0 0 0 0 0 0 0 0 0 0 0 0 0 0 0
				</DataArray>
				<DataArray Name="F2" type="Float32" format="ascii">