<?xml version="1.0"?>
<VTKFile type="PolyData">
	<PolyData>
		<Piece NumberOfPoints="1206" NumberOfPolys="1000">
			<Points>
				<DataArray type="Float32" NumberOfComponents="3" format="ascii">
 0 0 0 0.005 0 0 0.01 0 0 0.015 0 0 0.02 0 0 0.025 0 0 0.03 0 0 0.035 0 0 0.04 0 0 0.045 0 0 0.05 0 0 0.055 0 0 0.06 0 0 0.065 0 0 0.07 0 0 0.075 0 0 0.08 0 0 0.085 0 0 0.09 0 0 0.095 0 0 0.1 0 0 0.105 0 0 0.11 0 0 0.115 0 0 0.12 0 0 0.125 0 0 0.13 0 0 0.135 0 0 0.14 0 0 0.145 0 0 0.15 0 0 0.155 0 0 0.16 0 0 0.165 0 0 0.17 0 0 0.175 0 0 0.18 0 0 0.185 0 0 0.19 0 0 0.195 0 0 0.2 0 0 0.205 0 0 0.21 0 0 0.215 0 0 0.22 0 0 0.225 0 0 0.23 0 0 0.235 0 0 0.24 0 0 0.245 0 0 0.25 0 0 0.255 0 0 0.26 0 0 0.265 0 0 0.27 0 0 0.275 0 0 0.28 0 0 0.285 0 0 0.29 0 0 0.295 0 0 0.3 0 0 0.305 0 0 0.31 0 0 0.315 0 0 0.32 0 0 0.325 0 0 0.33 0 0 0.335 0 0 0.34 0 0 0.345 0 0 0.35 0 0 0.355 0 0 0.36 0 0 0.365 0 0 0.37 0 0 0.375 0 0 0.38 0 0 0.385 0 0 0.39 0 0 0.395 0 0 0.4 0 0 0.405 0 0 0.41 0 0 0.415 0 0 0.42 0 0 0.425 0 0 0.43 0 0 0.435 0 0 0.44 0 0 0.445 0 0 0.45 0 0 0.455 0 0 0.46 0 0 0.465 0 0 0.47 0 0 0.475 0 0 0.48 0 0 0.485 0 0 0.49 0 0 0.495 0 0 0.5 0 0 0.505 0 0 0.51 0 0 0.515 0 0 0.52 0 0 0.525 0 0 0.53 0 0 0.535 0 0 0.54 0 0 0.545 0 0 0.55 0 0 0.555 0 0 0.56 0 0 0.565 0 0 0.57 0 0 0.575 0 0 0.58 0 0 0.585 0 0 0.59 0 0 0.595 0 0 0.6 0 0 0.605 0 0 0.61 0 0 0.615 0 0 0.62 0 0 0.625 0 0 0.63 0 0 0.635 0 0 0.64 0 0 0.645 0 0 0.65 0 0 0.655 0 0 0.66 0 0 0.665 0 0 0.67 0 0 0.675 0 0 0.68 0 0 0.685 0 0 0.69 0 0 0.695 0 0 0.7 0 0 0.705 0 0 0.71 0 0 0.715 0 0 0.72 0 0 0.725 0 0 0.73 0 0 0.735 0 0 0.74 0 0 0.745 0 0 0.75 0 0 0.755 0 0 0.76 0 0 0.765 0 0 0.77 0 0 0.775 0 0 0.78 0 0 0.785 0 0 0.79 0 0 0.795 0 0 0.8 0 0 0.805 0 0 0.81 0 0 0.815 0 0 0.82 0 0 0.825 0 0 0.83 0 0 0.835 0 0 0.84 0 0 0.845 0 0 0.85 0 0 0.855 0 0 0.86 0 0 0.865 0 0 0.87 0 0 0.875 0 0 0.88 0 0 0.885 0 0 0.89 0 0 0.895 0 0 0.9 0 0 0.905 0 0 0.91 0 0 0.915 0 0 0.92 0 0 0.925 0 0 0.93 0 0 0.935 0 0 0.94 0 0 0.945 0 0 0.95 0 0 0.955 0 0 0.96 0 0 0.965 0 0 0.97 0 0 0.975 0 0 0.98 0 0 0.985 0 0 0.99 0 0 0.995 0 0 1 0 0 0 0.02 0 0.005 0.02 0 0.01 0.02 0 0.015 0.02 0 0.02 0.02 0 0.025 0.02 0 0.03 0.02 0 0.035 0.02 0 0.04 0.02 0 0.045 0.02 0 0.05 0.02 0 0.055 0.02 0 0.06 0.02 0 0.065 0.02 0 0.07 0.02 0 0.075 0.02 0 0.08 0.02 0 0.085 0.02 0 0.09 0.02 0 0.095 0.02 0 0.1 0.02 0 0.105 0.02 0 0.11 0.02 0 0.115 0.02 0 0.12 0.02 0 0.125 0.02 0 0.13 0.02 0 0.135 0.02 0 0.14 0.02 0 0.145 0.02 0 0.15 0.02 0 0.155 0.02 0 0.16 0.02 0 0.165 0.02 0 0.17 0.02 0 0.175 0.02 0 0.18 0.02 0 0.185 0.02 0 0.19 0.02 0 0.195 0.02 0 0.2 0.02 0 0.205 0.02 0 0.21 0.02 0 0.215 0.02 0 0.22 0.02 0 0.225 0.02 0 0.23 0.02 0 0.235 0.02 0 0.24 0.02 0 0.245 0.02 0 0.25 0.02 0 0.255 0.02 0 0.26 0.02 0 0.265 0.02 0 0.27 0.02 0 0.275 0.02 0 0.28 0.02 0 0.285 0.02 0 0.29 0.02 0 0.295 0.02 0 0.3 0.02 0 0.305 0.02 0 0.31 0.02 0 0.315 0.02 0 0.32 0.02 0 0.325 0.02 0 0.33 0.02 0 0.335 0.02 0 0.34 0.02 0 0.345 0.02 0 0.35 0.02 0 0.355 0.02 0 0.36 0.02 0 0.365 0.02 0 0.37 0.02 0 0.375 0.02 0 0.38 0.02 0 0.385 0.02 0 0.39 0.02 0 0.395 0.02 0 0.4 0.02 0 0.405 0.02 0 0.41 0.02 0 0.415 0.02 0 0.42 0.02 0 0.425 0.02 0 0.43 0.02 0 0.435 0.02 0 0.44 0.02 0 0.445 0.02 0 0.45 0.02 0 0.455 0.02 0 0.46 0.02 0 0.465 0.02 0 0.47 0.02 0 0.475 0.02 0 0.48 0.02 0 0.485 0.02 0 0.49 0.02 0 0.495 0.02 0 0.5 0.02 0 0.505 0.02 0 0.51 0.02 0 0.515 0.02 0 0.52 0.02 0 0.525 0.02 0 0.53 0.02 0 0.535 0.02 0 0.54 0.02 0 0.545 0.02 0 0.55 0.02 0 0.555 0.02 0 0.56 0.02 0 0.565 0.02 0 0.57 0.02 0 0.575 0.02 0 0.58 0.02 0 0.585 0.02 0 0.59 0.02 0 0.595 0.02 0 0.6 0.02 0 0.605 0.02 0 0.61 0.02 0 0.615 0.02 0 0.62 0.02 0 0.625 0.02 0 0.63 0.02 0 0.635 0.02 0 0.64 0.02 0 0.645 0.02 0 0.65 0.02 0 0.655 0.02 0 0.66 0.02 0 0.665 0.02 0 0.67 0.02 0 0.675 0.02 0 0.68 0.02 0 0.685 0.02 0 0.69 0.02 0 0.695 0.02 0 0.7 0.02 0 0.705 0.02 0 0.71 0.02 0 0.715 0.02 0 0.72 0.02 0 0.725 0.02 0 0.73 0.02 0 0.735 0.02 0 0.74 0.02 0 0.745 0.02 0 0.75 0.02 0 0.755 0.02 0 0.76 0.02 0 0.765 0.02 0 0.77 0.02 0 0.775 0.02 0 0.78 0.02 0 0.785 0.02 0 0.79 0.02 0 0.795 0.02 0 0.8 0.02 0 0.805 0.02 0 0.81 0.02 0 0.815 0.02 0 0.82 0.02 0 0.825 0.02 0 0.83 0.02 0 0.835 0.02 0 0.84 0.02 0 0.845 0.02 0 0.85 0.02 0 0.855 0.02 0 0.86 0.02 0 0.865 0.02 0 0.87 0.02 0 0.875 0.02 0 0.88 0.02 0 0.885 0.02 0 0.89 0.02 0 0.895 0.02 0 0.9 0.02 0 0.905 0.02 0 0.91 0.02 0 0.915 0.02 0 0.92 0.02 0 0.925 0.02 0 0.93 0.02 0 0.935 0.02 0 0.94 0.02 0 0.945 0.02 0 0.95 0.02 0 0.955 0.02 0 0.96 0.02 0 0.965 0.02 0 0.97 0.02 0 0.975 0.02 0 0.98 0.02 0 0.985 0.02 0 0.99 0.02 0 0.995 0.02 0 1 0.02 0 0 0.04 0 0.005 0.04 0 0.01 0.04 0 0.015 0.04 0 0.02 0.04 0 0.025 0.04 0 0.03 0.04 0 0.035 0.04 0 0.04 0.04 0 0.045 0.04 0 0.05 0.04 0 0.055 0.04 0 0.06 0.04 0 0.065 0.04 0 0.07 0.04 0 0.075 0.04 0 0.08 0.04 0 0.085 0.04 0 0.09 0.04 0 0.095 0.04 0 0.1 0.04 0 0.105 0.04 0 0.11 0.04 0 0.115 0.04 0 0.12 0.04 0 0.125 0.04 0 0.13 0.04 0 0.135 0.04 0 0.14 0.04 0 0.145 0.04 0 0.15 0.04 0 0.155 0.04 0 0.16 0.04 0 0.165 0.04 0 0.17 0.04 0 0.175 0.04 0 0.18 0.04 0 0.185 0.04 0 0.19 0.04 0 0.195 0.04 0 0.2 0.04 0 0.205 0.04 0 0.21 0.04 0 0.215 0.04 0 0.22 0.04 0 0.225 0.04 0 0.23 0.04 0 0.235 0.04 0 0.24 0.04 0 0.245 0.04 0 0.25 0.04 0 0.255 0.04 0 0.26 0.04 0 0.265 0.04 0 0.27 0.04 0 0.275 0.04 0 0.28 0.04 0 0.285 0.04 0 0.29 0.04 0 0.295 0.04 0 0.3 0.04 0 0.305 0.04 0 0.31 0.04 0 0.315 0.04 0 0.32 0.04 0 0.325 0.04 0 0.33 0.04 0 0.335 0.04 0 0.34 0.04 0 0.345 0.04 0 0.35 0.04 0 0.355 0.04 0 0.36 0.04 0 0.365 0.04 0 0.37 0.04 0 0.375 0.04 0 0.38 0.04 0 0.385 0.04 0 0.39 0.04 0 0.395 0.04 0 0.4 0.04 0 0.405 0.04 0 0.41 0.04 0 0.415 0.04 0 0.42 0.04 0 0.425 0.04 0 0.43 0.04 0 0.435 0.04 0 0.44 0.04 0 0.445 0.04 0 0.45 0.04 0 0.455 0.04 0 0.46 0.04 0 0.465 0.04 0 0.47 0.04 0 0.475 0.04 0 0.48 0.04 0 0.485 0.04 0 0.49 0.04 0 0.495 0.04 0 0.5 0.04 0 0.505 0.04 0 0.51 0.04 0 0.515 0.04 0 0.52 0.04 0 0.525 0.04 0 0.53 0.04 0 0.535 0.04 0 0.54 0.04 0 0.545 0.04 0 0.55 0.04 0 0.555 0.04 0 0.56 0.04 0 0.565 0.04 0 0.57 0.04 0 0.575 0.04 0 0.58 0.04 0 0.585 0.04 0 0.59 0.04 0 0.595 0.04 0 0.6 0.04 0 0.605 0.04 0 0.61 0.04 0 0.615 0.04 0 0.62 0.04 0 0.625 0.04 0 0.63 0.04 0 0.635 0.04 0 0.64 0.04 0 0.645 0.04 0 0.65 0.04 0 0.655 0.04 0 0.66 0.04 0 0.665 0.04 0 0.67 0.04 0 0.675 0.04 0 0.68 0.04 0 0.685 0.04 0 0.69 0.04 0 0.695 0.04 0 0.7 0.04 0 0.705 0.04 0 0.71 0.04 0 0.715 0.04 0 0.72 0.04 0 0.725 0.04 0 0.73 0.04 0 0.735 0.04 0 0.74 0.04 0 0.745 0.04 0 0.75 0.04 0 0.755 0.04 0 0.76 0.04 0 0.765 0.04 0 0.77 0.04 0 0.775 0.04 0 0.78 0.04 0 0.785 0.04 0 0.79 0.04 0 0.795 0.04 0 0.8 0.04 0 0.805 0.04 0 0.81 0.04 0 0.815 0.04 0 0.82 0.04 0 0.825 0.04 0 0.83 0.04 0 0.835 0.04 0 0.84 0.04 0 0.845 0.04 0 0.85 0.04 0 0.855 0.04 0 0.86 0.04 0 0.865 0.04 0 0.87 0.04 0 0.875 0.04 0 0.88 0.04 0 0.885 0.04 0 0.89 0.04 0 0.895 0.04 0 0.9 0.04 0 0.905 0.04 0 0.91 0.04 0 0.915 0.04 0 0.92 0.04 0 0.925 0.04 0 0.93 0.04 0 0.935 0.04 0 0.94 0.04 0 0.945 0.04 0 0.95 0.04 0 0.955 0.04 0 0.96 0.04 0 0.965 0.04 0 0.97 0.04 0 0.975 0.04 0 0.98 0.04 0 0.985 0.04 0 0.99 0.04 0 0.995 0.04 0 1 0.04 0 0 0.06 0 0.005 0.06 0 0.01 0.06 0 0.015 0.06 0 0.02 0.06 0 0.025 0.06 0 0.03 0.06 0 0.035 0.06 0 0.04 0.06 0 0.045 0.06 0 0.05 0.06 0 0.055 0.06 0 0.06 0.06 0 0.065 0.06 0 0.07 0.06 0 0.075 0.06 0 0.08 0.06 0 0.085 0.06 0 0.09 0.06 0 0.095 0.06 0 0.1 0.06 0 0.105 0.06 0 0.11 0.06 0 0.115 0.06 0 0.12 0.06 0 0.125 0.06 0 0.13 0.06 0 0.135 0.06 0 0.14 0.06 0 0.145 0.06 0 0.15 0.06 0 0.155 0.06 0 0.16 0.06 0 0.165 0.06 0 0.17 0.06 0 0.175 0.06 0 0.18 0.06 0 0.185 0.06 0 0.19 0.06 0 0.195 0.06 0 0.2 0.06 0 0.205 0.06 0 0.21 0.06 0 0.215 0.06 0 0.22 0.06 0 0.225 0.06 0 0.23 0.06 0 0.235 0.06 0 0.24 0.06 0 0.245 0.06 0 0.25 0.06 0 0.255 0.06 0 0.26 0.06 0 0.265 0.06 0 0.27 0.06 0 0.275 0.06 0 0.28 0.06 0 0.285 0.06 0 0.29 0.06 0 0.295 0.06 0 0.3 0.06 0 0.305 0.06 0 0.31 0.06 0 0.315 0.06 0 0.32 0.06 0 0.325 0.06 0 0.33 0.06 0 0.335 0.06 0 0.34 0.06 0 0.345 0.06 0 0.35 0.06 0 0.355 0.06 0 0.36 0.06 0 0.365 0.06 0 0.37 0.06 0 0.375 0.06 0 0.38 0.06 0 0.385 0.06 0 0.39 0.06 0 0.395 0.06 0 0.4 0.06 0 0.405 0.06 0 0.41 0.06 0 0.415 0.06 0 0.42 0.06 0 0.425 0.06 0 0.43 0.06 0 0.435 0.06 0 0.44 0.06 0 0.445 0.06 0 0.45 0.06 0 0.455 0.06 0 0.46 0.06 0 0.465 0.06 0 0.47 0.06 0 0.475 0.06 0 0.48 0.06 0 0.485 0.06 0 0.49 0.06 0 0.495 0.06 0 0.5 0.06 0 0.505 0.06 0 0.51 0.06 0 0.515 0.06 0 0.52 0.06 0 0.525 0.06 0 0.53 0.06 0 0.535 0.06 0 0.54 0.06 0 0.545 0.06 0 0.55 0.06 0 0.555 0.06 0 0.56 0.06 0 0.565 0.06 0 0.57 0.06 0 0.575 0.06 0 0.58 0.06 0 0.585 0.06 0 0.59 0.06 0 0.595 0.06 0 0.6 0.06 0 0.605 0.06 0 0.61 0.06 0 0.615 0.06 0 0.62 0.06 0 0.625 0.06 0 0.63 0.06 0 0.635 0.06 0 0.64 0.06 0 0.645 0.06 0 0.65 0.06 0 0.655 0.06 0 0.66 0.06 0 0.665 0.06 0 0.67 0.06 0 0.675 0.06 0 0.68 0.06 0 0.685 0.06 0 0.69 0.06 0 0.695 0.06 0 0.7 0.06 0 0.705 0.06 0 0.71 0.06 0 0.715 0.06 0 0.72 0.06 0 0.725 0.06 0 0.73 0.06 0 0.735 0.06 0 0.74 0.06 0 0.745 0.06 0 0.75 0.06 0 0.755 0.06 0 0.76 0.06 0 0.765 0.06 0 0.77 0.06 0 0.775 0.06 0 0.78 0.06 0 0.785 0.06 0 0.79 0.06 0 0.795 0.06 0 0.8 0.06 0 0.805 0.06 0 0.81 0.06 0 0.815 0.06 0 0.82 0.06 0 0.825 0.06 0 0.83 0.06 0 0.835 0.06 0 0.84 0.06 0 0.845 0.06 0 0.85 0.06 0 0.855 0.06 0 0.86 0.06 0 0.865 0.06 0 0.87 0.06 0 0.875 0.06 0 0.88 0.06 0 0.885 0.06 0 0.89 0.06 0 0.895 0.06 0 0.9 0.06 0 0.905 0.06 0 0.91 0.06 0 0.915 0.06 0 0.92 0.06 0 0.925 0.06 0 0.93 0.06 0 0.935 0.06 0 0.94 0.06 0 0.945 0.06 0 0.95 0.06 0 0.955 0.06 0 0.96 0.06 0 0.965 0.06 0 0.97 0.06 0 0.975 0.06 0 0.98 0.06 0 0.985 0.06 0 0.99 0.06 0 0.995 0.06 0 1 0.06 0 0 0.08 0 0.005 0.08 0 0.01 0.08 0 0.015 0.08 0 0.02 0.08 0 0.025 0.08 0 0.03 0.08 0 0.035 0.08 0 0.04 0.08 0 0.045 0.08 0 0.05 0.08 0 0.055 0.08 0 0.06 0.08 0 0.065 0.08 0 0.07 0.08 0 0.075 0.08 0 0.08 0.08 0 0.085 0.08 0 0.09 0.08 0 0.095 0.08 0 0.1 0.08 0 0.105 0.08 0 0.11 0.08 0 0.115 0.08 0 0.12 0.08 0 0.125 0.08 0 0.13 0.08 0 0.135 0.08 0 0.14 0.08 0 0.145 0.08 0 0.15 0.08 0 0.155 0.08 0 0.16 0.08 0 0.165 0.08 0
[...]
			<CellData Scalars="Density">
				<DataArray Name="Density" type="Float32" format="ascii">
 1 1 1 1 1 1 1 1 1 1 1 1 1 1 1 1 1 1 1 1 1 1 1 1 1 1 1 1 1 1 1 1 1 1 1 1 1 1 1 1 1 1 1 1 1 1 1 1 1 1 0.999999 0.999996 0.99999 0.999975 0.999933 0.999826 0.999559 0.998971 0.997826 0.995828 0.992653 0.98802 0.981721 0.973668 0.963875 0.952462 0.939603 0.925514 0.910415 0.894516 0.878017 0.861069 0.843816 0.826353 0.808776 0.791156 0.773567 0.756057 0.73867 0.721444 0.704411 0.687598 0.671028 0.654723 0.6387 0.622978 0.607572 0.592499 0.577777 0.563425 0.549465 0.535921 0.522823 0.510209 0.498123 0.486621 0.475771 0.465653 0.456363 0.448007 0.4407 0.434548 0.429636 0.425978 0.423533 0.422884 0.42239 0.422352 0.422339 0.422313 0.422363 0.42258 0.422622 0.422582 0.422417 0.421912 0.421214 0.42055 0.420007 0.419682 0.419541 0.419253 0.418101 0.413784 0.398515 0.362485 0.328214 0.293971 0.263065 0.26329 0.265717 0.266096 0.266249 0.266334 0.2664 0.266447 0.266451 0.266445 0.266411 0.266339 0.266285 0.266279 0.266298 0.266315 0.266347 0.266267 0.266191 0.264845 0.261745 0.244853 0.206732 0.145553 0.128085 0.125469 0.125071 0.125011 0.125002 0.125 0.125 0.125 0.125 0.125 0.125 0.125 0.125 0.125 0.125 0.125 0.125 0.125 0.125 0.125 0.125 0.125 0.125 0.125 0.125 0.125 0.125 0.125 0.125 0.125 0.125 0.125 0.125 0.125 0.125 0.125 0.125 0.125 0.125 0.125 0.125 0.125 0.125 0.125 0.125 0.125 0.125 0.125 1 1 1 1 1 1 1 1 1 1 1 1 1 1 1 1 1 1 1 1 1 1 1 1 1 1 1 1 1 1 1 1 1 1 1 1 1 1 1 1 1 1 1 1 1 1 1 1 1 1 0.999999 0.999996 0.99999 0.999975 0.999933 0.999826 0.999559 0.998971 0.997826 0.995828 0.992653 0.98802 0.981721 0.973668 0.963875 0.952462 0.939603 0.925514 0.910415 0.894516 0.878017 0.861069 0.843816 0.826353 0.808776 0.791156 0.773567 0.756057 0.73867 0.721444 0.704411 0.687598 0.671028 0.654723 0.6387 0.622978 0.607572 0.592499 0.577777 0.563425 0.549465 0.535921 0.522823 0.510209 0.498123 0.486621 0.475771 0.465653 0.456363 0.448007 0.4407 0.434548 0.429636 0.425978 0.423533 0.422884 0.42239 0.422352 0.422339 0.422313 0.422363 0.42258 0.422622 0.422582 0.422417 0.421912 0.421214 0.42055 0.420007 0.419682 0.419541 0.419253 0.418101 0.413784 0.398515 0.362485 0.328214 0.293971 0.263065 0.26329 0.265717 0.266096 0.266249 0.266334 0.2664 0.266447 0.266451 0.266445 0.266411 0.266339 0.266285 0.266279 0.266298 0.266315 0.266347 0.266267 0.266191 0.264845 0.261745 0.244853 0.206732 0.145553 0.128085 0.125469 0.125071 0.125011 0.125002 0.125 0.125 0.125 0.125 0.125 0.125 0.125 0.125 0.125 0.125 0.125 0.125 0.125 0.125 0.125 0.125 0.125 0.125 0.125 0.125 0.125 0.125 0.125 0.125 0.125 0.125 0.125 0.125 0.125 0.125 0.125 0.125 0.125 0.125 0.125 0.125 0.125 0.125 0.125 0.125 0.125 0.125 0.125 1 1 1 1 1 1 1 1 1 1 1 1 1 1 1 1 1 1 1 1 1 1 1 1 1 1 1 1 1 1 1 1 1 1 1 1 1 1 1 1 1 1 1 1 1 1 1 1 1 1 0.999999 0.999996 0.99999 0.999975 0.999933 0.999826 0.999559 0.998971 0.997826 0.995828 0.992653 0.98802 0.981721 0.973668 0.963875 0.952462 0.939603 0.925514 0.910415 0.894516 0.878017 0.861069 0.843816 0.826353 0.808776 0.791156 0.773567 0.756057 0.73867 0.721444 0.704411 0.687598 0.671028 0.654723 0.6387 0.622978 0.607572 0.592499 0.577777 0.563425 0.549465 0.535921 0.522823 0.510209 0.498123 0.486621 0.475771 0.465653 0.456363 0.448007 0.4407 0.434548 0.429636 0.425978 0.423533 0.422884 0.42239 0.422352 0.422339 0.422313 0.422363 0.42258 0.422622 0.422582 0.422417 0.421912 0.421214 0.42055 0.420007 0.419682 0.419541 0.419253 0.418101 0.413784 0.398515 0.362485 0.328214 0.293971 0.263065 0.26329 0.265717 0.266096 0.266249 0.266334 0.2664 0.266447 0.266451 0.266445 0.266411 0.266339 0.266285 0.266279 0.266298 0.266315 0.266347 0.266267 0.266191 0.264845 0.261745 0.244853 0.206732 0.145553 0.128085 0.125469 0.125071 0.125011 0.125002 0.125 0.125 0.125 0.125 0.125 0.125 0.125 0.125 0.125 0.125 0.125 0.125 0.125 0.125 0.125 0.125 0.125 0.125 0.125 0.125 0.125 0.125 0.125 0.125 0.125 0.125 0.125 0.125 0.125 0.125 0.125 0.125 0.125 0.125 0.125 0.125 0.125 0.125 0.125 0.125 0.125 0.125 0.125 1 1 1 1 1 1 1 1 1 1 1 1 1 1 1 1 1 1 1 1 1 1 1 1 1 1 1 1 1 1 1 1 1 1 1 1 1 1 1 1 1 1 1 1 1 1 1 1 1 1 0.999999 0.999996 0.99999 0.999975 0.999933 0.999826 0.999559 0.998971 0.997826 0.995828 0.992653 0.98802 0.981721 0.973668 0.963875 0.952462 0.939603 0.925514 0.910415 0.894516 0.878017 0.861069 0.843816 0.826353 0.808776 0.791156 0.773567 0.756057 0.73867 0.721444 0.704411 0.687598 0.671028 0.654723 0.6387 0.622978 0.607572 0.592499 0.577777 0.563425 0.549465 0.535921 0.522823 0.510209 0.498123 0.486621 0.475771 0.465653 0.456363 0.448007 0.4407 0.434548 0.429636 0.425978 0.423533 0.422884 0.42239 0.422352 0.422339 0.422313 0.422363 0.42258 0.422622 0.422582 0.422417 0.421912 0.421214 0.42055 0.420007 0.419682 0.419541 0.419253 0.418101 0.413784 0.398515 0.362485 0.328214 0.293971 0.263065 0.26329 0.265717 0.266096 0.266249 0.266334 0.2664 0.266447 0.266451 0.266445 0.266411 0.266339 0.266285 0.266279 0.266298 0.266315 0.266347 0.266267 0.266191 0.264845 0.261745 0.244853 0.206732 0.145553 0.128085 0.125469 0.125071 0.125011 0.125002 0.125 0.125 0.125 0.125 0.125 0.125 0.125 0.125 0.125 0.125 0.125 0.125 0.125 0.125 0.125 0.125 0.125 0.125 0.125 0.125 0.125 0.125 0.125 0.125 0.125 0.125 0.125 0.125 0.125 0.125 0.125 0.125 0.125 0.125 0.125 0.125 0.125 0.125 0.125 0.125 0.125 0.125 0.125 1 1 1 1 1 1 1 1 1 1 1 1 1 1 1 1 1 1 1 1 1 1 1 1 1 1 1 1 1 1 1 1 1 1 1 1 1 1 1 1 1 1 1 1 1 1 1 1 1 1 0.999999 0.999996 0.99999 0.999975 0.999933 0.999826 0.999559 0.998971 0.997826 0.995828 0.992653 0.98802 0.981721 0.973668 0.963875 0.952462 0.939603 0.925514 0.910415 0.894516 0.878017 0.861069 0.843816 0.826353 0.808776 0.791156 0.773567 0.756057 0.73867 0.721444 0.704411 0.687598 0.671028 0.654723 0.6387 0.622978 0.607572 0.592499 0.577777 0.563425 0.549465 0.535921 0.522823 0.510209 0.498123 0.486621 0.475771 0.465653 0.456363 0.448007 0.4407 0.434548 0.429636 0.425978 0.423533 0.422884 0.42239 0.422352 0.422339 0.422313 0.422363 0.42258 0.422622 0.422582 0.422417 0.421912 0.421214 0.42055 0.420007 0.419682 0.419541 0.419253 0.418101 0.413784 0.398515 0.362485 0.328214 0.293971 0.263065 0.26329 0.265717 0.266096 0.266249 0.266334 0.2664 0.266447 0.266451 0.266445 0.266411 0.266339 0.266285 0.266279 0.266298 0.266315 0.266347 0.266267 0.266191 0.264845 0.261745 0.244853 0.206732 0.145553 0.128085 0.125469 0.125071 0.125011 0.125002 0.125 0.125 0.125 0.125 0.125 0.125 0.125 0.125 0.125 0.125 0.125 0.125 0.125 0.125 0.125 0.125 0.125 0.125 0.125 0.125 0.125 0.125 0.125 0.125 0.125 0.125 0.125 0.125 0.125 0.125 0.125 0.125 0.125 0.125 0.125 0.125 0.125 0.125 0.125 0.125 0.125 0.125 0.125
				</DataArray>
				<DataArray Name="Energy" type="Float32" format="ascii">
 2.5 2.5 2.5 2.5 2.5 2.5 2.5 2.5 2.5 2.5 2.5 2.5 2.5 2.5 2.5 2.5 2.5 2.5 2.5 2.5 2.5 2.5 2.5 2.5 2.5 2.5 2.5 2.5 2.5 2.5 2.5 2.5 2.5 2.5 2.5 2.5 2.5 2.5 2.5 2.5 2.5 2.5 2.5 2.5 2.5 2.5 2.5 2.5 2.5 2.5 2.5 2.5 2.49999 2.49997 2.49993 2.49983 2.49956 2.49897 2.49783 2.49583 2.49264 2.488 2.48166 2.47354 2.46361 2.45198 2.43878 2.42422 2.40847 2.39174 2.37419 2.35598 2.33722 2.31802 2.29848 2.27865 2.25858 2.23833 2.21795 2.19749 2.17698 2.15645 2.13593 2.11545 2.09504 2.07472 2.05452 2.03447 2.0146 1.99494 1.97555 1.95645 1.93773 1.91944 1.90167 1.88453 1.86816 1.8527 1.83836 1.82534 1.81387 1.80419 1.7965 1.79086 1.78825 1.78538 1.78594 1.7869 1.7885 1.78997 1.79091 1.79092 1.7913 1.79184 1.79254 1.7945 1.79725 1.79992 1.80202 1.8033 1.80387 1.80524 1.81033 1.82954 1.89814 2.08689 2.31021 2.57055 2.87136 2.88332 2.85159 2.84612 2.84459 2.8438 2.84322 2.84283 2.84287 2.84298 2.84335 2.8441 2.84466 2.84453 2.84414 2.84347 2.84291 2.84214 2.8415 2.83569 2.82234 2.74366 2.53144 2.14249 2.02012 2.00301 2.00046 2.00007 2.00001 2 2 2 2 2 2 2 2 2 2 2 2 2 2 2 2 2 2 2 2 2 2 2 2 2 2 2 2 2 2 2 2 2 2 2 2 2 2 2 2 2 2 2 2.5 2.5 2.5 2.5 2.5 2.5 2.5 2.5 2.5 2.5 2.5 2.5 2.5 2.5 2.5 2.5 2.5 2.5 2.5 2.5 2.5 2.5 2.5 2.5 2.5 2.5 2.5 2.5 2.5 2.5 2.5 2.5 2.5 2.5 2.5 2.5 2.5 2.5 2.5 2.5 2.5 2.5 2.5 2.5 2.5 2.5 2.5 2.5 2.5 2.5 2.5 2.5 2.49999 2.49997 2.49993 2.49983 2.49956 2.49897 2.49783 2.49583 2.49264 2.488 2.48166 2.47354 2.46361 2.45198 2.43878 2.42422 2.40847 2.39174 2.37419 2.35598 2.33722 2.31802 2.29848 2.27865 2.25858 2.23833 2.21795 2.19749 2.17698 2.15645 2.13593 2.11545 2.09504 2.07472 2.05452 2.03447 2.0146 1.99494 1.97555 1.95645 1.93773 1.91944 1.90167 1.88453 1.86816 1.8527 1.83836 1.82534 1.81387 1.80419 1.7965 1.79086 1.78825 1.78538 1.78594 1.7869 1.7885 1.78997 1.79091 1.79092 1.7913 1.79184 1.79254 1.7945 1.79725 1.79992 1.80202 1.8033 1.80387 1.80524 1.81033 1.82954 1.89814 2.08689 2.31021 2.57055 2.87136 2.88332 2.85159 2.84612 2.84459 2.8438 2.84322 2.84283 2.84287 2.84298 2.84335 2.8441 2.84466 2.84453 2.84414 2.84347 2.84291 2.84214 2.8415 2.83569 2.82234 2.74366 2.53144 2.14249 2.02012 2.00301 2.00046 2.00007 2.00001 2 2 2 2 2 2 2 2 2 2 2 2 2 2 2 2 2 2 2 2 2 2 2 2 2 2 2 2 2 2 2 2 2 2 2 2 2 2 2 2 2 2 2 2.5 2.5 2.5 2.5 2.5 2.5 2.5 2.5 2.5 2.5 2.5 2.5 2.5 2.5 2.5 2.5 2.5 2.5 2.5 2.5 2.5 2.5 2.5 2.5 2.5 2.5 2.5 2.5 2.5 2.5 2.5 2.5 2.5 2.5 2.5 2.5 2.5 2.5 2.5 2.5 2.5 2.5 2.5 2.5 2.5 2.5 2.5 2.5 2.5 2.5 2.5 2.5 2.49999 2.49997 2.49993 2.49983 2.49956 2.49897 2.49783 2.49583 2.49264 2.488 2.48166 2.47354 2.46361 2.45198 2.43878 2.42422 2.40847 2.39174 2.37419 2.35598 2.33722 2.31802 2.29848 2.27865 2.25858 2.23833 2.21795 2.19749 2.17698 2.15645 2.13593 2.11545 2.09504 2.07472 2.05452 2.03447 2.0146 1.99494 1.97555 1.95645 1.93773 1.91944 1.90167 1.88453 1.86816 1.8527 1.83836 1.82534 1.81387 1.80419 1.7965 1.79086 1.78825 1.78538 1.78594 1.7869 1.7885 1.78997 1.79091 1.79092 1.7913 1.79184 1.79254 1.7945 1.79725 1.79992 1.80202 1.8033 1.80387 1.80524 1.81033 1.82954 1.89814 2.08689 2.31021 2.57055 2.87136 2.88332 2.85159 2.84612 2.84459 2.8438 2.84322 2.84283 2.84287 2.84298 2.84335 2.8441 2.84466 2.84453 2.84414 2.84347 2.84291 2.84214 2.8415 2.83569 2.82234 2.74366 2.53144 2.14249 2.02012 2.00301 2.00046 2.00007 2.00001 2 2 2 2 2 2 2 2 2 2 2 2 2 2 2 2 2 2 2 2 2 2 2 2 2 2 2 2 2 2 2 2 2 2 2 2 2 2 2 2 2 2 2 2.5 2.5 2.5 2.5 2.5 2.5 2.5 2.5 2.5 2.5 2.5 2.5 2.5 2.5 2.5 2.5 2.5 2.5 2.5 2.5 2.5 2.5 2.5 2.5 2.5 2.5 2.5 2.5 2.5 2.5 2.5 2.5 2.5 2.5 2.5 2.5 2.5 2.5 2.5 2.5 2.5 2.5 2.5 2.5 2.5 2.5 2.5 2.5 2.5 2.5 2.5 2.5 2.49999 2.49997 2.49993 2.49983 2.49956 2.49897 2.49783 2.49583 2.49264 2.488 2.48166 2.47354 2.46361 2.45198 2.43878 2.42422 2.40847 2.39174 2.37419 2.35598 2.33722 2.31802 2.29848 2.27865 2.25858 2.23833 2.21795 2.19749 2.17698 2.15645 2.13593 2.11545 2.09504 2.07472 2.05452 2.03447 2.0146 1.99494 1.97555 1.95645 1.93773 1.91944 1.90167 1.88453 1.86816 1.8527 1.83836 1.82534 1.81387 1.80419 1.7965 1.79086 1.78825 1.78538 1.78594 1.7869 1.7885 1.78997 1.79091 1.79092 1.7913 1.79184 1.79254 1.7945 1.79725 1.79992 1.80202 1.8033 1.80387 1.80524 1.81033 1.82954 1.89814 2.08689 2.31021 2.57055 2.87136 2.88332 2.85159 2.84612 2.84459 2.8438 2.84322 2.84283 2.84287 2.84298 2.84335 2.8441 2.84466 2.84453 2.84414 2.84347 2.84291 2.84214 2.8415 2.83569 2.82234 2.74366 2.53144 2.14249 2.02012 2.00301 2.00046 2.00007 2.00001 2 2 2 2 2 2 2 2 2 2 2 2 2 2 2 2 2 2 2 2 2 2 2 2 2 2 2 2 2 2 2 2 2 2 2 2 2 2 2 2 2 2 2 2.5 2.5 2.5 2.5 2.5 2.5 2.5 2.5 2.5 2.5 2.5 2.5 2.5 2.5 2.5 2.5 2.5 2.5 2.5 2.5 2.5 2.5 2.5 2.5 2.5 2.5 2.5 2.5 2.5 2.5 2.5 2.5 2.5 2.5 2.5 2.5 2.5 2.5 2.5 2.5 2.5 2.5 2.5 2.5 2.5 2.5 2.5 2.5 2.5 2.5 2.5 2.5 2.49999 2.49997 2.49993 2.49983 2.49956 2.49897 2.49783 2.49583 2.49264 2.488 2.48166 2.47354 2.46361 2.45198 2.43878 2.42422 2.40847 2.39174 2.37419 2.35598 2.33722 2.31802 2.29848 2.27865 2.25858 2.23833 2.21795 2.19749 2.17698 2.15645 2.13593 2.11545 2.09504 2.07472 2.05452 2.03447 2.0146 1.99494 1.97555 1.95645 1.93773 1.91944 1.90167 1.88453 1.86816 1.8527 1.83836 1.82534 1.81387 1.80419 1.7965 1.79086 1.78825 1.78538 1.78594 1.7869 1.7885 1.78997 1.79091 1.79092 1.7913 1.79184 1.79254 1.7945 1.79725 1.79992 1.80202 1.8033 1.80387 1.80524 1.81033 1.82954 1.89814 2.08689 2.31021 2.57055 2.87136 2.88332 2.85159 2.84612 2.84459 2.8438 2.84322 2.84283 2.84287 2.84298 2.84335 2.8441 2.84466 2.84453 2.84414 2.84347 2.84291 2.84214 2.8415 2.83569 2.82234 2.74366 2.53144 2.14249 2.02012 2.00301 2.00046 2.00007 2.00001 2 2 2 2 2 2 2 2 2 2 2 2 2 2 2 2 2 2 2 2 2 2 2 2 2 2 2 2 2 2 2 2 2 2 2 2 2 2 2 2 2 2 2
				</DataArray>
				<DataArray Name="F1" type="Float32" format="ascii">
 1 1 1 1 1 1 1 1 1 1 1 1 1 1 1 1 1 1 1 1 1 1 1 1 1 1 1 1 1 1 1 1 1 1 1 1 1 1 1 1 1 1 1 1 1 1 1 1 1 1 1 1 1 1 1 1 1 1 1 1 1 1 1 1 1 1 1 1 1 1 1 1 1 1 1 1 1 1 1 1 1 1 1 1 1 1 1 1 1 1 1 1 1 1 1 1 1 1 1 1 1 1 1 1 1 1 1 1 1 1 1 1 1 1 1 0.999999 0.999997 0.999987 0.999947 0.999795 0.999242 0.997299 0.990674 0.96863 0.896638 0.712587 0.495664 0.281179 0.0827763 0.00533099 0.000302331 1.69583e-05 9.56447e-07 5.39421e-08 3.03684e-09 1.70666e-10 9.57014e-12 5.33093e-13 2.89244e-14 1.72355e-15 0 0 0 0 0 0 0 0 0 0 0 0 0 0 0 0 0 0 0 0 0 0 0 0 0 0 0 0 0 0 0 0 0 0 0 0 0 0 0 0 0 0 0 0 0 0 0 0 0 0 0 0 0 0 0 0 0 0 0 0 1 1 1 1 1 1 1 1 1 1 1 1 1 1 1 1 1 1 1 1 1 1 1 1 1 1 1 1 1 1 1 1 1 1 1 1 1 1 1 1 1 1 1 1 1 1 1 1 1 1 1 1 1 1 1 1 1 1 1 1 1 1 1 1 1 1 1 1 1 1 1 1 1 1 1 1 1 1 1 1 1 1 1 1 1 1 1 1 1 1 1 1 1 1 1 1 1 1 1 1 1 1 1 1 1 1 1 1 1 1 1 1 1 1 1 0.999999 0.999997 0.999987 0.999947 0.999795 0.999242 0.997299 0.990674 0.96863 0.896638 0.712587 0.495664 0.281179 0.0827763 0.00533099 0.000302331 1.69583e-05 9.56447e-07 5.39421e-08 3.03684e-09 1.70666e-10 9.57014e-12 5.33093e-13 2.89244e-14 1.72355e-15 0 0 0 0 0 0 0 0 0 0 0 0 0 0 0 0 0 0 0 0 0 0 0 0 0 0 0 0 0 0 0 0 0 0 0 0 0 0 0 0 0 0 0 0 0 0 0 0 0 0 0 0 0 0 0 0 0 0 0 0 1 1 1 1 1 1 1 1 1 1 1 1 1 1 1 1 1 1 1 1 1 1 1 1 1 1 1 1 1 1 1 1 1 1 1 1 1 1 1 1 1 1 1 1 1 1 1 1 1 1 1 1 1 1 1 1 1 1 1 1 1 1 1 1 1 1 1 1 1 1 1 1 1 1 1 1 1 1 1 1 1 1 1 1 1 1 1 1 1 1 1 1 1 1 1 1 1 1 1 1 1 1 1 1 1 1 1 1 1 1 1 1 1 1 1 0.999999 0.999997 0.999987 0.999947 0.999795 0.999242 0.997299 0.990674 0.96863 0.896638 0.712587 0.495664 0.281179 0.0827763 0.00533099 0.000302331 1.69583e-05 9.56447e-07 5.39421e-08 3.03684e-09 1.70666e-10 9.57014e-12 5.33093e-13 2.89244e-14 1.72355e-15 0 0 0 0 0 0 0 0 0 0 0 0 0 0 0 0 0 0 0 0 0 0 0 0 0 0 0 0 0 0 0 0 0 0 0 0 0 0 0 0 0 0 0 0 0 0 0 0 0 0 0 0 0 0 0 0 0 0 0 0 1 1 1 1 1 1 1 1 1 1 1 1 1 1 1 1 1 1 1 1 1 1 1 1 1 1 1 1 1 1 1 1 1 1 1 1 1 1 1 1 1 1 1 1 1 1 1 1 1 1 1 1 1 1 1 1 1 1 1 1 1 1 1 1 1 1 1 1 1 1 1 1 1 1 1 1 1 1 1 1 1 1 1 1 1 1 1 1 1 1 1 1 1 1 1 1 1 1 1 1 1 1 1 1 1 1 1 1 1 1 1 1 1 1 1 0.999999 0.999997 0.999987 0.999947 0.999795 0.999242 0.997299 0.990674 0.96863 0.896638 0.712587 0.495664 0.281179 0.0827763 0.00533099 0.000302331 1.69583e-05 9.56447e-07 5.39421e-08 3.03684e-09 1.70666e-10 9.57014e-12 5.33093e-13 2.89244e-14 1.72355e-15 0 0 0 0 0 0 0 0 0 0 0 0 0 0 0 0 0 0 0 0 0 0 0 0 0 0 0 0 0 0 0 0 0 0 0 0 0 0 0 0 0 0 0 0 0 0 0 0 0 0 0 0 0 0 0 0 0 0 0 0 1 1 1 1 1 1 1 1 1 1 1 1 1 1 1 1 1 1 1 1 1 1 1 1 1 1 1 1 1 1 1 1 1 1 1 1 1 1 1 1 1 1 1 1 1 1 1 1 1 1 1 1 1 1 1 1 1 1 1 1 1 1 1 1 1 1 1 1 1 1 1 1 1 1 1 1 1 1 1 1 1 1 1 1 1 1 1 1 1 1 1 1 1 1 1 1 1 1 1 1 1 1 1 1 1 1 1 1 1 1 1 1 1 1 1 0.999999 0.999997 0.999987 0.999947 0.999795 0.999242 0.997299 0.990674 0.96863 0.896638 0.712587 0.495664 0.281179 0.0827763 0.00533099 0.000302331 1.69583e-05 9.56447e-07 5.39421e-08 3.03684e-09 1.70666e-10 9.57014e-12 5.33093e-13 2.89244e-14 1.72355e-15 0 0 0 0 0 0 0 0 0 0 0 0 0 0 0 0 0 0 0 0 0 0 0 0 0 0 0 0 0 0 0 0 0 0 0 0 0 0 0 0 0 0 0 0 0 0 0 0 0 0 0 0 0 0 0 0 0 0 0 0
				</DataArray>
				<DataArray Name="F2" type="Float32" format="ascii">
 0 0 0 0 0 0 0 0 0 0 0 0 0 0 0 0 0 0 0 0 0 0 0 0 0 0 0 0 0 0 0 0 0 0 0 0 0 0 0 0 0 0 0 0 0 0 0 0 0 0 0 0 0 0 0 0 0 0 0 0 0 0 0 0 0 0 0 0 0 0 0 0 0 0 0 0 0 0 0 0 0 0 0 0 0 0 0 0 0 0 0 0 0 0 0 0 0 0 0 0 0 0 0 1.85136e-16 8.46016e-16 3.96453e-15 3.12265e-14 2.87795e-13 2.41208e-12 1.84066e-11 1.28631e-10 8.27225e-10 4.91736e-09 2.7138e-08 1.39654e-07 6.72952e-07 3.04917e-06 1.30458e-05 5.29332e-05 0.000204634 0.000757598 0.00270092 0.00932608 0.03137 0.103362 0.287413 0.504336 0.718821 0.917224 0.994669 0.999698 0.999983 0.999999 1 1 1 1 1 1 1 1 1 1 1 1 1 1 1 1 1 1 1 1 1 1 1 1 1 1 1 1 1 1 1 1 1 1 1 1 1 1 1 1 1 1 1 1 1 1 1 1 1 1 1 1 1 1 1 1 1 1 1 1 1 1 1 1 1 1 1 0 0 0 0 0 0 0 0 0 0 0 0 0 0 0 0 0 0 0 0 0 0 0 0 0 0 0 0 0 0 0 0 0 0 0 0 0 0 0 0 0 0 0 0 0 0 0 0 0 0 0 0 0 0 0 0 0 0 0 0 0 0 0 0 0 0 0 0 0 0 0 0 0 0 0 0 0 0 0 0 0 0 0 0 0 0 0 0 0 0 0 0 0 0 0 0 0 0 0 0 0 0 0 1.85136e-16 8.46016e-16 3.96453e-15 3.12265e-14 2.87795e-13 2.41208e-12 1.84066e-11 1.28631e-10 8.27225e-10 4.91736e-09 2.7138e-08 1.39654e-07 6.72952e-07 3.04917e-06 1.30458e-05 5.29332e-05 0.000204634 0.000757598 0.00270092 0.00932608 0.03137 0.103362 0.287413 0.504336 0.718821 0.917224 0.994669 0.999698 0.999983 0.999999 1 1 1 1 1 1 1 1 1 1 1 1 1 1 1 1 1 1 1 1 1 1 1 1 1 1 1 1 1 1 1 1 1 1 1 1 1 1 1 1 1 1 1 1 1 1 1 1 1 1 1 1 1 1 1 1 1 1 1 1 1 1 1 1 1 1 1 0 0 0 0 0 0 0 0 0 0 0 0 0 0 0 0 0 0 0 0 0 0 0 0 0 0 0 0 0 0 0 0 0 0 0 0 0 0 0 0 0 0 0 0 0 0 0 0 0 0 0 0 0 0 0 0 0 0 0 0 0 0 0 0 0 0 0 0 0 0 0 0 0 0 0 0 0 0 0 0 0 0 0 0 0 0 0 0 0 0 0 0 0 0 0 0 0 0 0 0 0 0 0 1.85136e-16 8.46016e-16 3.96453e-15 3.12265e-14 2.87795e-13 2.41208e-12 1.84066e-11 1.28631e-10 8.27225e-10 4.91736e-09 2.7138e-08 1.39654e-07 6.72952e-07 3.04917e-06 1.30458e-05 5.29332e-05 0.000204634 0.000757598 0.00270092 0.00932608 0.03137 0.103362 0.287413 0.504336 0.718821 0.917224 0.994669 0.999698 0.999983 0.999999 1 1 1 1 1 1 1 1 1 1 1 1 1 1 1 1 1 1 1 1 1 1 1 1 1 1 1 1 1 1 1 1 1 1 1 1 1 1 1 1 1 1 1 1 1 1 1 1 1 1 1 1 1 1 1 1 1 1 1 1 1 1 1 1 1 1 1 0 0 0 0 0 0 0 0 0 0 0 0 0 0 0 0 0 0 0 0 0 0 0 0 0 0 0 0 0 0 0 0 0 0 0 0 0 0 0 0 0 0 0 0 0 0 0 0 0 0 0 0 0 0 0 0 0 0 0 0 0 0 0 0 0 0 0 0 0 0 0 0 0 0 0 0 0 0 0 0 0 0 0 0 0 0 0 0 0 0 0 0 0 0 0 0 0 0 0 0 0 0 0 1.85136e-16 8.46016e-16 3.96453e-15 3.12265e-14 2.87795e-13 2.41208e-12 1.84066e-11 1.28631e-10 8.27225e-10 4.91736e-09 2.7138e-08 1.39654e-07 6.72952e-07 3.04917e-06 1.30458e-05 5.29332e-05 0.000204634 0.000757598 0.00270092 0.00932608 0.03137 0.103362 0.287413 0.504336 0.718821 0.917224 0.994669 0.999698 0.999983 0.999999 1 1 1 1 1 1 1 1 1 1 1 1 1 1 1 1 1 1 1 1 1 1 1 1 1 1 1 1 1 1 1 1 1 1 1 1 1 1 1 1 1 1 1 1 1 1 1 1 1 1 1 1 1 1 1 1 1 1 1 1 1 1 1 1 1 1 1 0 0 0 0 0 0 0 0 0 0 0 0 0 0 0 0 0 0 0 0 0 0 0 0 0 0 0 0 0 0 0 0 0 0 0 0 0 0 0 0 0 0 0 0 0 0 0 0 0 0 0 0 0 0 0 0 0 0 0 0 0 0 0 0 0 0 0 0 0 0 0 0 0 0 0 0 0 0 0 0 0 0 0 0 0 0 0 0 0 0 0 0 0 0 0 0 0 0 0 0 0 0 0 1.85136e-16 8.46016e-16 3.96453e-15 3.12265e-14 2.87795e-13 2.41208e-12 1.84066e-11 1.28631e-10 8.27225e-10 4.91736e-09 2.7138e-08 1.39654e-07 6.72952e-07 3.04917e-06 1.30458e-05 5.29332e-05 0.000204634 0.000757598 0.00270092 0.00932608 0.03137 0.103362 0.287413 0.504336 0.718821 0.917224 0.994669 0.999698 0.999983 0.999999 1 1 1 1 1 1 1 1 1 1 1 1 1 1 1 1 1 1 1 1 1 1 1 1 1 1 1 1 1 1 1 1 1 1 1 1 1 1 1 1 1 1 1 1 1 1 1 1 1 1 1 1 1 1 1 1 1 1 1 1 1 1 1 1 1 1 1
				</DataArray>
				<DataArray Name="F3" type="Float32" format="ascii">