<?xml version="1.0"?>
<VTKFile type="PolyData">
	<PolyData>
		<Piece NumberOfPoints="1206" NumberOfPolys="1000">
			<Points>
				<DataArray type="Float32" NumberOfComponents="3" format="ascii">
 0 0 0 0.005 0 0 0.01 0 0 0.015 0 0 0.02 0 0 0.025 0 0 0.03 0 0 0.035 0 0 0.04 0 0 0.045 0 0 0.05 0 0 0.055 0 0 0.06 0 0 0.065 0 0 0.07 0 0 0.075 0 0 0.08 0 0 0.085 0 0 0.09 0 0 0.095 0 0 0.1 0 0 0.105 0 0 0.11 0 0 0.115 0 0 0.12 0 0 0.125 0 0 0.13 0 0 0.135 0 0 0.14 0 0 0.145 0 0 0.15 0 0 0.155 0 0 0.16 0 0 0.165 0 0 0.17 0 0 0.175 0 0 0.18 0 0 0.185 0 0 0.19 0 0 0.195 0 0 0.2 0 0 0.205 0 0 0.21 0 0 0.215 0 0 0.22 0 0 0.225 0 0 0.23 0 0 0.235 0 0 0.24 0 0 0.245 0 0 0.25 0 0 0.255 0 0 0.26 0 0 0.265 0 0 0.27 0 0 0.275 0 0 0.28 0 0 0.285 0 0 0.29 0 0 0.295 0 0 0.3 0 0 0.305 0 0 0.31 0 0 0.315 0 0 0.32 0 0 0.325 0 0 0.33 0 0 0.335 0 0 0.34 0 0 0.345 0 0 0.35 0 0 0.355 0 0 0.36 0 0 0.365 0 0 0.37 0 0 0.375 0 0 0.38 0 0 0.385 0 0 0.39 0 0 0.395 0 0 0.4 0 0 0.405 0 0 0.41 0 0 0.415 0 0 0.42 0 0 0.425 0 0 0.43 0 0 0.435 0 0 0.44 0 0 0.445 0 0 0.45 0 0 0.455 0 0 0.46 0 0 0.465 0 0 0.47 0 0 0.475 0 0 0.48 0 0 0.485 0 0 0.49 0 0 0.495 0 0 0.5 0 0 0.505 0 0 0.51 0 0 0.515 0 0 0.52 0 0 0.525 0 0 0.53 0 0 0.535 0 0 0.54 0 0 0.545 0 0 0.55 0 0 0.555 0 0 0.56 0 0 0.565 0 0 0.57 0 0 0.575 0 0 0.58 0 0 0.585 0 0 0.59 0 0 0.595 0 0 0.6 0 0 0.605 0 0 0.61 0 0 0.615 0 0 0.62 0 0 0.625 0 0 0.63 0 0 0.635 0 0 0.64 0 0 0.645 0 0 0.65 0 0 0.655 0 0 0.66 0 0 0.665 0 0 0.67 0 0 0.675 0 0 0.68 0 0 0.685 0 0 0.69 0 0 0.695 0 0 0.7 0 0 0.705 0 0 0.71 0 0 0.715 0 0 0.72 0 0 0.725 0 0 0.73 0 0 0.735 0 0 0.74 0 0 0.745 0 0 0.75 0 0 0.755 0 0 0.76 0 0 0.765 0 0 0.77 0 0 0.775 0 0 0.78 0 0 0.785 0 0 0.79 0 0 0.795 0 0 0.8 0 0 0.805 0 0 0.81 0 0 0.815 0 0 0.82 0 0 0.825 0 0 0.83 0 0 0.835 0 0 0.84 0 0 0.845 0 0 0.85 0 0 0.855 0 0 0.86 0 0 0.865 0 0 0.87 0 0 0.875 0 0 0.88 0 0 0.885 0 0 0.89 0 0 0.895 0 0 0.9 0 0 0.905 0 0 0.91 0 0 0.915 0 0 0.92 0 0 0.925 0 0 0.93 0 0 0.935 0 0 0.94 0 0 0.945 0 0 0.95 0 0 0.955 0 0 0.96 0 0 0.965 0 0 0.97 0 0 0.975 0 0 0.98 0 0 0.985 0 0 0.99 0 0 0.995 0 0 1 0 0 0 0.02 0 0.005 0.02 0 0.01 0.02 0 0.015 0.02 0 0.02 0.02 0 0.025 0.02 0 0.03 0.02 0 0.035 0.02 0 0.04 0.02 0 0.045 0.02 0 0.05 0.02 0 0.055 0.02 0 0.06 0.02 0 0.065 0.02 0 0.07 0.02 0 0.075 0.02 0 0.08 0.02 0 0.085 0.02 0 0.09 0.02 0 0.095 0.02 0 0.1 0.02 0 0.105 0.02 0 0.11 0.02 0 0.115 0.02 0 0.12 0.02 0 0.125 0.02 0 0.13 0.02 0 0.135 0.02 0 0.14 0.02 0 0.145 0.02 0 0.15 0.02 0 0.155 0.02 0 0.16 0.02 0 0.165 0.02 0 0.17 0.02 0 0.175 0.02 0 0.18 0.02 0 0.185 0.02 0 0.19 0.02 0 0.195 0.02 0 0.2 0.02 0 0.205 0.02 0 0.21 0.02 0 0.215 0.02 0 0.22 0.02 0 0.225 0.02 0 0.23 0.02 0 0.235 0.02 0 0.24 0.02 0 0.245 0.02 0 0.25 0.02 0 0.255 0.02 0 0.26 0.02 0 0.265 0.02 0 0.27 0.02 0 0.275 0.02 0 0.28 0.02 0 0.285 0.02 0 0.29 0.02 0 0.295 0.02 0 0.3 0.02 0 0.305 0.02 0 0.31 0.02 0 0.315 0.02 0 0.32 0.02 0 0.325 0.02 0 0.33 0.02 0 0.335 0.02 0 0.34 0.02 0 0.345 0.02 0 0.35 0.02 0 0.355 0.02 0 0.36 0.02 0 0.365 0.02 0 0.37 0.02 0 0.375 0.02 0 0.38 0.02 0 0.385 0.02 0 0.39 0.02 0 0.395 0.02 0 0.4 0.02 0 0.405 0.02 0 0.41 0.02 0 0.415 0.02 0 0.42 0.02 0 0.425 0.02 0 0.43 0.02 0 0.435 0.02 0 0.44 0.02 0 0.445 0.02 0 0.45 0.02 0 0.455 0.02 0 0.46 0.02 0 0.465 0.02 0 0.47 0.02 0 0.475 0.02 0 0.48 0.02 0 0.485 0.02 0 0.49 0.02 0 0.495 0.02 0 0.5 0.02 0 0.505 0.02 0 0.51 0.02 0 0.515 0.02 0 0.52 0.02 0 0.525 0.02 0 0.53 0.02 0 0.535 0.02 0 0.54 0.02 0 0.545 0.02 0 0.55 0.02 0 0.555 0.02 0 0.56 0.02 0 0.565 0.02 0 0.57 0.02 0 0.575 0.02 0 0.58 0.02 0 0.585 0.02 0 0.59 0.02 0 0.595 0.02 0 0.6 0.02 0 0.605 0.02 0 0.61 0.02 0 0.615 0.02 0 0.62 0.02 0 0.625 0.02 0 0.63 0.02 0 0.635 0.02 0 0.64 0.02 0 0.645 0.02 0 0.65 0.02 0 0.655 0.02 0 0.66 0.02 0 0.665 0.02 0 0.67 0.02 0 0.675 0.02 0 0.68 0.02 0 0.685 0.02 0 0.69 0.02 0 0.695 0.02 0 0.7 0.02 0 0.705 0.02 0 0.71 0.02 0 0.715 0.02 0 0.72 0.02 0 0.725 0.02 0 0.73 0.02 0 0.735 0.02 0 0.74 0.02 0 0.745 0.02 0 0.75 0.02 0 0.755 0.02 0 0.76 0.02 0 0.765 0.02 0 0.77 0.02 0 0.775 0.02 0 0.78 0.02 0 0.785 0.02 0 0.79 0.02 0 0.795 0.02 0 0.8 0.02 0 0.805 0.02 0 0.81 0.02 0 0.815 0.02 0 0.82 0.02 0 0.825 0.02 0 0.83 0.02 0 0.835 0.02 0 0.84 0.02 0 0.845 0.02 0 0.85 0.02 0 0.855 0.02 0 0.86 0.02 0 0.865 0.02 0 0.87 0.02 0 0.875 0.02 0 0.88 0.02 0 0.885 0.02 0 0.89 0.02 0 0.895 0.02 0 0.9 0.02 0 0.905 0.02 0 0.91 0.02 0 0.915 0.02 0 0.92 0.02 0 0.925 0.02 0 0.93 0.02 0 0.935 0.02 0 0.94 0.02 0 0.945 0.02 0 0.95 0.02 0 0.955 0.02 0 0.96 0.02 0 0.965 0.02 0 0.97 0.02 0 0.975 0.02 0 0.98 0.02 0 0.985 0.02 0 0.99 0.02 0 0.995 0.02 0 1 0.02 0 0 0.04 0 0.005 0.04 0 0.01 0.04 0 0.015 0.04 0 0.02 0.04 0 0.025 0.04 0 0.03 0.04 0 0.035 0.04 0 0.04 0.04 0 0.045 0.04 0 0.05 0.04 0 0.055 0.04 0 0.06 0.04 0 0.065 0.04 0 0.07 0.04 0 0.075 0.04 0 0.08 0.04 0 0.085 0.04 0 0.09 0.04 0 0.095 0.04 0 0.1 0.04 0 0.105 0.04 0 0.11 0.04 0 0.115 0.04 0 0.12 0.04 0 0.125 0.04 0 0.13 0.04 0 0.135 0.04 0 0.14 0.04 0 0.145 0.04 0 0.15 0.04 0 0.155 0.04 0 0.16 0.04 0 0.165 0.04 0 0.17 0.04 0 0.175 0.04 0 0.18 0.04 0 0.185 0.04 0 0.19 0.04 0 0.195 0.04 0 0.2 0.04 0 0.205 0.04 0 0.21 0.04 0 0.215 0.04 0 0.22 0.04 0 0.225 0.04 0 0.23 0.04 0 0.235 0.04 0 0.24 0.04 0 0.245 0.04 0 0.25 0.04 0 0.255 0.04 0 0.26 0.04 0 0.265 0.04 0 0.27 0.04 0 0.275 0.04 0 0.28 0.04 0 0.285 0.04 0 0.29 0.04 0 0.295 0.04 0 0.3 0.04 0 0.305 0.04 0 0.31 0.04 0 0.315 0.04 0 0.32 0.04 0 0.325 0.04 0 0.33 0.04 0 0.335 0.04 0 0.34 0.04 0 0.345 0.04 0 0.35 0.04 0 0.355 0.04 0 0.36 0.04 0 0.365 0.04 0 0.37 0.04 0 0.375 0.04 0 0.38 0.04 0 0.385 0.04 0 0.39 0.04 0 0.395 0.04 0 0.4 0.04 0 0.405 0.04 0 0.41 0.04 0 0.415 0.04 0 0.42 0.04 0 0.425 0.04 0 0.43 0.04 0 0.435 0.04 0 0.44 0.04 0 0.445 0.04 0 0.45 0.04 0 0.455 0.04 0 0.46 0.04 0 0.465 0.04 0 0.47 0.04 0 0.475 0.04 0 0.48 0.04 0 0.485 0.04 0 0.49 0.04 0 0.495 0.04 0 0.5 0.04 0 0.505 0.04 0 0.51 0.04 0 0.515 0.04 0 0.52 0.04 0 0.525 0.04 0 0.53 0.04 0 0.535 0.04 0 0.54 0.04 0 0.545 0.04 0 0.55 0.04 0 0.555 0.04 0 0.56 0.04 0 0.565 0.04 0 0.57 0.04 0 0.575 0.04 0 0.58 0.04 0 0.585 0.04 0 0.59 0.04 0 0.595 0.04 0 0.6 0.04 0 0.605 0.04 0 0.61 0.04 0 0.615 0.04 0 0.62 0.04 0 0.625 0.04 0 0.63 0.04 0 0.635 0.04 0 0.64 0.04 0 0.645 0.04 0 0.65 0.04 0 0.655 0.04 0 0.66 0.04 0 0.665 0.04 0 0.67 0.04 0 0.675 0.04 0 0.68 0.04 0 0.685 0.04 0 0.69 0.04 0 0.695 0.04 0 0.7 0.04 0 0.705 0.04 0 0.71 0.04 0 0.715 0.04 0 0.72 0.04 0 0.725 0.04 0 0.73 0.04 0 0.735 0.04 0 0.74 0.04 0 0.745 0.04 0 0.75 0.04 0 0.755 0.04 0 0.76 0.04 0 0.765 0.04 0 0.77 0.04 0 0.775 0.04 0 0.78 0.04 0 0.785 0.04 0 0.79 0.04 0 0.795 0.04 0 0.8 0.04 0 0.805 0.04 0 0.81 0.04 0 0.815 0.04 0 0.82 0.04 0 0.825 0.04 0 0.83 0.04 0 0.835 0.04 0 0.84 0.04 0 0.845 0.04 0 0.85 0.04 0 0.855 0.04 0 0.86 0.04 0 0.865 0.04 0 0.87 0.04 0 0.875 0.04 0 0.88 0.04 0 0.885 0.04 0 0.89 0.04 0 0.895 0.04 0 0.9 0.04 0 0.905 0.04 0 0.91 0.04 0 0.915 0.04 0 0.92 0.04 0 0.925 0.04 0 0.93 0.04 0 0.935 0.04 0 0.94 0.04 0 0.945 0.04 0 0.95 0.04 0 0.955 0.04 0 0.96 0.04 0 0.965 0.04 0 0.97 0.04 0 0.975 0.04 0 0.98 0.04 0 0.985 0.04 0 0.99 0.04 0 0.995 0.04 0 1 0.04 0 0 0.06 0 0.005 0.06 0 0.01 0.06 0 0.015 0.06 0 0.02 0.06 0 0.025 0.06 0 0.03 0.06 0 0.035 0.06 0 0.04 0.06 0 0.045 0.06 0 0.05 0.06 0 0.055 0.06 0 0.06 0.06 0 0.065 0.06 0 0.07 0.06 0 0.075 0.06 0 0.08 0.06 0 0.085 0.06 0 0.09 0.06 0 0.095 0.06 0 0.1 0.06 0 0.105 0.06 0 0.11 0.06 0 0.115 0.06 0 0.12 0.06 0 0.125 0.06 0 0.13 0.06 0 0.135 0.06 0 0.14 0.06 0 0.145 0.06 0 0.15 0.06 0 0.155 0.06 0 0.16 0.06 0 0.165 0.06 0 0.17 0.06 0 0.175 0.06 0 0.18 0.06 0 0.185 0.06 0 0.19 0.06 0 0.195 0.06 0 0.2 0.06 0 0.205 0.06 0 0.21 0.06 0 0.215 0.06 0 0.22 0.06 0 0.225 0.06 0 0.23 0.06 0 0.235 0.06 0 0.24 0.06 0 0.245 0.06 0 0.25 0.06 0 0.255 0.06 0 0.26 0.06 0 0.265 0.06 0 0.27 0.06 0 0.275 0.06 0 0.28 0.06 0 0.285 0.06 0 0.29 0.06 0 0.295 0.06 0 0.3 0.06 0 0.305 0.06 0 0.31 0.06 0 0.315 0.06 0 0.32 0.06 0 0.325 0.06 0 0.33 0.06 0 0.335 0.06 0 0.34 0.06 0 0.345 0.06 0 0.35 0.06 0 0.355 0.06 0 0.36 0.06 0 0.365 0.06 0 0.37 0.06 0 0.375 0.06 0 0.38 0.06 0 0.385 0.06 0 0.39 0.06 0 0.395 0.06 0 0.4 0.06 0 0.405 0.06 0 0.41 0.06 0 0.415 0.06 0 0.42 0.06 0 0.425 0.06 0 0.43 0.06 0 0.435 0.06 0 0.44 0.06 0 0.445 0.06 0 0.45 0.06 0 0.455 0.06 0 0.46 0.06 0 0.465 0.06 0 0.47 0.06 0 0.475 0.06 0 0.48 0.06 0 0.485 0.06 0 0.49 0.06 0 0.495 0.06 0 0.5 0.06 0 0.505 0.06 0 0.51 0.06 0 0.515 0.06 0 0.52 0.06 0 0.525 0.06 0 0.53 0.06 0 0.535 0.06 0 0.54 0.06 0 0.545 0.06 0 0.55 0.06 0 0.555 0.06 0 0.56 0.06 0 0.565 0.06 0 0.57 0.06 0 0.575 0.06 0 0.58 0.06 0 0.585 0.06 0 0.59 0.06 0 0.595 0.06 0 0.6 0.06 0 0.605 0.06 0 0.61 0.06 0 0.615 0.06 0 0.62 0.06 0 0.625 0.06 0 0.63 0.06 0 0.635 0.06 0 0.64 0.06 0 0.645 0.06 0 0.65 0.06 0 0.655 0.06 0 0.66 0.06 0 0.665 0.06 0 0.67 0.06 0 0.675 0.06 0 0.68 0.06 0 0.685 0.06 0 0.69 0.06 0 0.695 0.06 0 0.7 0.06 0 0.705 0.06 0 0.71 0.06 0 0.715 0.06 0 0.72 0.06 0 0.725 0.06 0 0.73 0.06 0 0.735 0.06 0 0.74 0.06 0 0.745 0.06 0 0.75 0.06 0 0.755 0.06 0 0.76 0.06 0 0.765 0.06 0 0.77 0.06 0 0.775 0.06 0 0.78 0.06 0 0.785 0.06 0 0.79 0.06 0 0.795 0.06 0 0.8 0.06 0 0.805 0.06 0 0.81 0.06 0 0.815 0.06 0 0.82 0.06 0 0.825 0.06 0 0.83 0.06 0 0.835 0.06 0 0.84 0.06 0 0.845 0.06 0 0.85 0.06 0 0.855 0.06 0 0.86 0.06 0 0.865 0.06 0 0.87 0.06 0 0.875 0.06 0 0.88 0.06 0 0.885 0.06 0 0.89 0.06 0 0.895 0.06 0 0.9 0.06 0 0.905 0.06 0 0.91 0.06 0 0.915 0.06 0 0.92 0.06 0 0.925 0.06 0 0.93 0.06 0 0.935 0.06 0 0.94 0.06 0 0.945 0.06 0 0.95 0.06 0 0.955 0.06 0 0.96 0.06 0 0.965 0.06 0 0.97 0.06 0 0.975 0.06 0 0.98 0.06 0 0.985 0.06 0 0.99 0.06 0 0.995 0.06 0 1 0.06 0 0 0.08 0 0.005 0.08 0 0.01 0.08 0 0.015 0.08 0 0.02 0.08 0 0.025 0.08 0 0.03 0.08 0 0.035 0.08 0 0.04 0.08 0 0.045 0.08 0 0.05 0.08 0 0.055 0.08 0 0.06 0.08 0 0.065 0.08 0 0.07 0.08 0 0.075 0.08 0 0.08 0.08 0 0.085 0.08 0 0.09 0.08 0 0.095 0.08 0 0.1 0.08 0 0.105 0.08 0 0.11 0.08 0 0.115 0.08 0 0.12 0.08 0 0.125 0.08 0 0.13 0.08 0 0.135 0.08 0 0.14 0.08 0 0.145 0.08 0 0.15 0.08 0 0.155 0.08 0 0.16 0.08 0 0.165 0.08 0
[...]
			<CellData Scalars="Density">
				<DataArray Name="Density" type="Float32" format="ascii">
 1 1 1 1 1 1 1 1 1 1 1 1 1 1 1 1 1 1 1 1 1 1 1 1 1 1 1 1 1 1 1 1 1 1 1 0.999999 0.999999 0.999996 0.99999 0.999975 0.999936 0.999842 0.99964 0.999239 0.998518 0.997321 0.995474 0.992808 0.98918 0.984487 0.978681 0.971763 0.963782 0.954818 0.944972 0.934357 0.923085 0.911265 0.898998 0.886373 0.873471 0.86036 0.8471 0.833742 0.82033 0.8069 0.793483 0.780107 0.766792 0.753559 0.740424 0.7274 0.714499 0.701732 0.689107 0.676633 0.664316 0.652163 0.640179 0.62837 0.616742 0.6053 0.594049 0.582996 0.572147 0.561509 0.551092 0.540906 0.530961 0.521274 0.51186 0.502742 0.493943 0.485494 0.47743 0.469792 0.462626 0.455983 0.449914 0.444471 0.439696 0.435617 0.432241 0.429548 0.427489 0.425987 0.424948 0.424269 0.423851 0.423602 0.423466 0.423366 0.423304 0.423259 0.42321 0.423149 0.423073 0.422979 0.422865 0.422733 0.422588 0.422432 0.422256 0.422042 0.42177 0.421428 0.421014 0.420501 0.419784 0.418593 0.416385 0.412201 0.404646 0.392141 0.3736 0.34945 0.322445 0.297395 0.279087 0.269305 0.265884 0.265263 0.265261 0.265416 0.265789 0.26622 0.266495 0.266595 0.266619 0.266626 0.266632 0.266641 0.266657 0.266681 0.266706 0.266727 0.266739 0.266742 0.266744 0.266739 0.266736 0.266709 0.266701 0.266452 0.266175 0.263543 0.258918 0.238989 0.20336 0.147004 0.128492 0.125534 0.125081 0.125012 0.125002 0.125 0.125 0.125 0.125 0.125 0.125 0.125 0.125 0.125 0.125 0.125 0.125 0.125 0.125 0.125 0.125 0.125 0.125 0.125 0.125 0.125 0.125 0.125 0.125 0.125 1 1 1 1 1 1 1 1 1 1 1 1 1 1 1 1 1 1 1 1 1 1 1 1 1 1 1 1 1 1 1 1 1 1 1 0.999999 0.999999 0.999996 0.99999 0.999975 0.999936 0.999842 0.99964 0.999239 0.998518 0.997321 0.995474 0.992808 0.98918 0.984487 0.978681 0.971763 0.963782 0.954818 0.944972 0.934357 0.923085 0.911265 0.898998 0.886373 0.873471 0.86036 0.8471 0.833742 0.82033 0.8069 0.793483 0.780107 0.766792 0.753559 0.740424 0.7274 0.714499 0.701732 0.689107 0.676633 0.664316 0.652163 0.640179 0.62837 0.616742 0.6053 0.594049 0.582996 0.572147 0.561509 0.551092 0.540906 0.530961 0.521274 0.51186 0.502742 0.493943 0.485494 0.47743 0.469792 0.462626 0.455983 0.449914 0.444471 0.439696 0.435617 0.432241 0.429548 0.427489 0.425987 0.424948 0.424269 0.423851 0.423602 0.423466 0.423366 0.423304 0.423259 0.42321 0.423149 0.423073 0.422979 0.422865 0.422733 0.422588 0.422432 0.422256 0.422042 0.42177 0.421428 0.421014 0.420501 0.419784 0.418593 0.416385 0.412201 0.404646 0.392141 0.3736 0.34945 0.322445 0.297395 0.279087 0.269305 0.265884 0.265263 0.265261 0.265416 0.265789 0.26622 0.266495 0.266595 0.266619 0.266626 0.266632 0.266641 0.266657 0.266681 0.266706 0.266727 0.266739 0.266742 0.266744 0.266739 0.266736 0.266709 0.266701 0.266452 0.266175 0.263543 0.258918 0.238989 0.20336 0.147004 0.128492 0.125534 0.125081 0.125012 0.125002 0.125 0.125 0.125 0.125 0.125 0.125 0.125 0.125 0.125 0.125 0.125 0.125 0.125 0.125 0.125 0.125 0.125 0.125 0.125 0.125 0.125 0.125 0.125 0.125 0.125 1 1 1 1 1 1 1 1 1 1 1 1 1 1 1 1 1 1 1 1 1 1 1 1 1 1 1 1 1 1 1 1 1 1 1 0.999999 0.999999 0.999996 0.99999 0.999975 0.999936 0.999842 0.99964 0.999239 0.998518 0.997321 0.995474 0.992808 0.98918 0.984487 0.978681 0.971763 0.963782 0.954818 0.944972 0.934357 0.923085 0.911265 0.898998 0.886373 0.873471 0.86036 0.8471 0.833742 0.82033 0.8069 0.793483 0.780107 0.766792 0.753559 0.740424 0.7274 0.714499 0.701732 0.689107 0.676633 0.664316 0.652163 0.640179 0.62837 0.616742 0.6053 0.594049 0.582996 0.572147 0.561509 0.551092 0.540906 0.530961 0.521274 0.51186 0.502742 0.493943 0.485494 0.47743 0.469792 0.462626 0.455983 0.449914 0.444471 0.439696 0.435617 0.432241 0.429548 0.427489 0.425987 0.424948 0.424269 0.423851 0.423602 0.423466 0.423366 0.423304 0.423259 0.42321 0.423149 0.423073 0.422979 0.422865 0.422733 0.422588 0.422432 0.422256 0.422042 0.42177 0.421428 0.421014 0.420501 0.419784 0.418593 0.416385 0.412201 0.404646 0.392141 0.3736 0.34945 0.322445 0.297395 0.279087 0.269305 0.265884 0.265263 0.265261 0.265416 0.265789 0.26622 0.266495 0.266595 0.266619 0.266626 0.266632 0.266641 0.266657 0.266681 0.266706 0.266727 0.266739 0.266742 0.266744 0.266739 0.266736 0.266709 0.266701 0.266452 0.266175 0.263543 0.258918 0.238989 0.20336 0.147004 0.128492 0.125534 0.125081 0.125012 0.125002 0.125 0.125 0.125 0.125 0.125 0.125 0.125 0.125 0.125 0.125 0.125 0.125 0.125 0.125 0.125 0.125 0.125 0.125 0.125 0.125 0.125 0.125 0.125 0.125 0.125 1 1 1 1 1 1 1 1 1 1 1 1 1 1 1 1 1 1 1 1 1 1 1 1 1 1 1 1 1 1 1 1 1 1 1 0.999999 0.999999 0.999996 0.99999 0.999975 0.999936 0.999842 0.99964 0.999239 0.998518 0.997321 0.995474 0.992808 0.98918 0.984487 0.978681 0.971763 0.963782 0.954818 0.944972 0.934357 0.923085 0.911265 0.898998 0.886373 0.873471 0.86036 0.8471 0.833742 0.82033 0.8069 0.793483 0.780107 0.766792 0.753559 0.740424 0.7274 0.714499 0.701732 0.689107 0.676633 0.664316 0.652163 0.640179 0.62837 0.616742 0.6053 0.594049 0.582996 0.572147 0.561509 0.551092 0.540906 0.530961 0.521274 0.51186 0.502742 0.493943 0.485494 0.47743 0.469792 0.462626 0.455983 0.449914 0.444471 0.439696 0.435617 0.432241 0.429548 0.427489 0.425987 0.424948 0.424269 0.423851 0.423602 0.423466 0.423366 0.423304 0.423259 0.42321 0.423149 0.423073 0.422979 0.422865 0.422733 0.422588 0.422432 0.422256 0.422042 0.42177 0.421428 0.421014 0.420501 0.419784 0.418593 0.416385 0.412201 0.404646 0.392141 0.3736 0.34945 0.322445 0.297395 0.279087 0.269305 0.265884 0.265263 0.265261 0.265416 0.265789 0.26622 0.266495 0.266595 0.266619 0.266626 0.266632 0.266641 0.266657 0.266681 0.266706 0.266727 0.266739 0.266742 0.266744 0.266739 0.266736 0.266709 0.266701 0.266452 0.266175 0.263543 0.258918 0.238989 0.20336 0.147004 0.128492 0.125534 0.125081 0.125012 0.125002 0.125 0.125 0.125 0.125 0.125 0.125 0.125 0.125 0.125 0.125 0.125 0.125 0.125 0.125 0.125 0.125 0.125 0.125 0.125 0.125 0.125 0.125 0.125 0.125 0.125 1 1 1 1 1 1 1 1 1 1 1 1 1 1 1 1 1 1 1 1 1 1 1 1 1 1 1 1 1 1 1 1 1 1 1 0.999999 0.999999 0.999996 0.99999 0.999975 0.999936 0.999842 0.99964 0.999239 0.998518 0.997321 0.995474 0.992808 0.98918 0.984487 0.978681 0.971763 0.963782 0.954818 0.944972 0.934357 0.923085 0.911265 0.898998 0.886373 0.873471 0.86036 0.8471 0.833742 0.82033 0.8069 0.793483 0.780107 0.766792 0.753559 0.740424 0.7274 0.714499 0.701732 0.689107 0.676633 0.664316 0.652163 0.640179 0.62837 0.616742 0.6053 0.594049 0.582996 0.572147 0.561509 0.551092 0.540906 0.530961 0.521274 0.51186 0.502742 0.493943 0.485494 0.47743 0.469792 0.462626 0.455983 0.449914 0.444471 0.439696 0.435617 0.432241 0.429548 0.427489 0.425987 0.424948 0.424269 0.423851 0.423602 0.423466 0.423366 0.423304 0.423259 0.42321 0.423149 0.423073 0.422979 0.422865 0.422733 0.422588 0.422432 0.422256 0.422042 0.42177 0.421428 0.421014 0.420501 0.419784 0.418593 0.416385 0.412201 0.404646 0.392141 0.3736 0.34945 0.322445 0.297395 0.279087 0.269305 0.265884 0.265263 0.265261 0.265416 0.265789 0.26622 0.266495 0.266595 0.266619 0.266626 0.266632 0.266641 0.266657 0.266681 0.266706 0.266727 0.266739 0.266742 0.266744 0.266739 0.266736 0.266709 0.266701 0.266452 0.266175 0.263543 0.258918 0.238989 0.20336 0.147004 0.128492 0.125534 0.125081 0.125012 0.125002 0.125 0.125 0.125 0.125 0.125 0.125 0.125 0.125 0.125 0.125 0.125 0.125 0.125 0.125 0.125 0.125 0.125 0.125 0.125 0.125 0.125 0.125 0.125 0.125 0.125
				</DataArray>
				<DataArray Name="Energy" type="Float32" format="ascii">
 2.5 2.5 2.5 2.5 2.5 2.5 2.5 2.5 2.5 2.5 2.5 2.5 2.5 2.5 2.5 2.5 2.5 2.5 2.5 2.5 2.5 2.5 2.5 2.5 2.5 2.5 2.5 2.5 2.5 2.5 2.5 2.5 2.5 2.5 2.5 2.5 2.5 2.5 2.49999 2.49998 2.49994 2.49984 2.49964 2.49924 2.49852 2.49732 2.49547 2.4928 2.48916 2.48444 2.47859 2.47159 2.46349 2.45435 2.44426 2.43331 2.42161 2.40925 2.39634 2.38294 2.36913 2.35498 2.34054 2.32586 2.31098 2.29594 2.28077 2.26549 2.25014 2.23472 2.21926 2.20377 2.18827 2.17277 2.15727 2.1418 2.12636 2.11096 2.09561 2.08032 2.06509 2.04995 2.0349 2.01995 2.00511 1.9904 1.97584 1.96145 1.94725 1.93327 1.91953 1.90609 1.89299 1.88028 1.86804 1.85633 1.84526 1.83492 1.8254 1.81683 1.80928 1.80283 1.7975 1.7933 1.79014 1.78792 1.78648 1.78566 1.7853 1.78526 1.78538 1.78569 1.78605 1.78646 1.7869 1.78736 1.78785 1.78837 1.78895 1.78958 1.79027 1.791 1.79181 1.79278 1.79399 1.7955 1.79732 1.79956 1.80268 1.80785 1.81747 1.83595 1.87026 1.92993 2.02572 2.16574 2.34713 2.54484 2.7118 2.8103 2.84646 2.85313 2.85316 2.85149 2.8475 2.84292 2.84 2.83895 2.83872 2.83868 2.83865 2.83858 2.83844 2.83822 2.83796 2.83774 2.83761 2.83754 2.83749 2.83745 2.83745 2.83737 2.83734 2.83626 2.83502 2.82368 2.80325 2.71 2.51265 2.1525 2.02273 2.00343 2.00052 2.00008 2.00001 2 2 2 2 2 2 2 2 2 2 2 2 2 2 2 2 2 2 2 2 2 2 2 2 2 2.5 2.5 2.5 2.5 2.5 2.5 2.5 2.5 2.5 2.5 2.5 2.5 2.5 2.5 2.5 2.5 2.5 2.5 2.5 2.5 2.5 2.5 2.5 2.5 2.5 2.5 2.5 2.5 2.5 2.5 2.5 2.5 2.5 2.5 2.5 2.5 2.5 2.5 2.49999 2.49998 2.49994 2.49984 2.49964 2.49924 2.49852 2.49732 2.49547 2.4928 2.48916 2.48444 2.47859 2.47159 2.46349 2.45435 2.44426 2.43331 2.42161 2.40925 2.39634 2.38294 2.36913 2.35498 2.34054 2.32586 2.31098 2.29594 2.28077 2.26549 2.25014 2.23472 2.21926 2.20377 2.18827 2.17277 2.15727 2.1418 2.12636 2.11096 2.09561 2.08032 2.06509 2.04995 2.0349 2.01995 2.00511 1.9904 1.97584 1.96145 1.94725 1.93327 1.91953 1.90609 1.89299 1.88028 1.86804 1.85633 1.84526 1.83492 1.8254 1.81683 1.80928 1.80283 1.7975 1.7933 1.79014 1.78792 1.78648 1.78566 1.7853 1.78526 1.78538 1.78569 1.78605 1.78646 1.7869 1.78736 1.78785 1.78837 1.78895 1.78958 1.79027 1.791 1.79181 1.79278 1.79399 1.7955 1.79732 1.79956 1.80268 1.80785 1.81747 1.83595 1.87026 1.92993 2.02572 2.16574 2.34713 2.54484 2.7118 2.8103 2.84646 2.85313 2.85316 2.85149 2.8475 2.84292 2.84 2.83895 2.83872 2.83868 2.83865 2.83858 2.83844 2.83822 2.83796 2.83774 2.83761 2.83754 2.83749 2.83745 2.83745 2.83737 2.83734 2.83626 2.83502 2.82368 2.80325 2.71 2.51265 2.1525 2.02273 2.00343 2.00052 2.00008 2.00001 2 2 2 2 2 2 2 2 2 2 2 2 2 2 2 2 2 2 2 2 2 2 2 2 2 2.5 2.5 2.5 2.5 2.5 2.5 2.5 2.5 2.5 2.5 2.5 2.5 2.5 2.5 2.5 2.5 2.5 2.5 2.5 2.5 2.5 2.5 2.5 2.5 2.5 2.5 2.5 2.5 2.5 2.5 2.5 2.5 2.5 2.5 2.5 2.5 2.5 2.5 2.49999 2.49998 2.49994 2.49984 2.49964 2.49924 2.49852 2.49732 2.49547 2.4928 2.48916 2.48444 2.47859 2.47159 2.46349 2.45435 2.44426 2.43331 2.42161 2.40925 2.39634 2.38294 2.36913 2.35498 2.34054 2.32586 2.31098 2.29594 2.28077 2.26549 2.25014 2.23472 2.21926 2.20377 2.18827 2.17277 2.15727 2.1418 2.12636 2.11096 2.09561 2.08032 2.06509 2.04995 2.0349 2.01995 2.00511 1.9904 1.97584 1.96145 1.94725 1.93327 1.91953 1.90609 1.89299 1.88028 1.86804 1.85633 1.84526 1.83492 1.8254 1.81683 1.80928 1.80283 1.7975 1.7933 1.79014 1.78792 1.78648 1.78566 1.7853 1.78526 1.78538 1.78569 1.78605 1.78646 1.7869 1.78736 1.78785 1.78837 1.78895 1.78958 1.79027 1.791 1.79181 1.79278 1.79399 1.7955 1.79732 1.79956 1.80268 1.80785 1.81747 1.83595 1.87026 1.92993 2.02572 2.16574 2.34713 2.54484 2.7118 2.8103 2.84646 2.85313 2.85316 2.85149 2.8475 2.84292 2.84 2.83895 2.83872 2.83868 2.83865 2.83858 2.83844 2.83822 2.83796 2.83774 2.83761 2.83754 2.83749 2.83745 2.83745 2.83737 2.83734 2.83626 2.83502 2.82368 2.80325 2.71 2.51265 2.1525 2.02273 2.00343 2.00052 2.00008 2.00001 2 2 2 2 2 2 2 2 2 2 2 2 2 2 2 2 2 2 2 2 2 2 2 2 2 2.5 2.5 2.5 2.5 2.5 2.5 2.5 2.5 2.5 2.5 2.5 2.5 2.5 2.5 2.5 2.5 2.5 2.5 2.5 2.5 2.5 2.5 2.5 2.5 2.5 2.5 2.5 2.5 2.5 2.5 2.5 2.5 2.5 2.5 2.5 2.5 2.5 2.5 2.49999 2.49998 2.49994 2.49984 2.49964 2.49924 2.49852 2.49732 2.49547 2.4928 2.48916 2.48444 2.47859 2.47159 2.46349 2.45435 2.44426 2.43331 2.42161 2.40925 2.39634 2.38294 2.36913 2.35498 2.34054 2.32586 2.31098 2.29594 2.28077 2.26549 2.25014 2.23472 2.21926 2.20377 2.18827 2.17277 2.15727 2.1418 2.12636 2.11096 2.09561 2.08032 2.06509 2.04995 2.0349 2.01995 2.00511 1.9904 1.97584 1.96145 1.94725 1.93327 1.91953 1.90609 1.89299 1.88028 1.86804 1.85633 1.84526 1.83492 1.8254 1.81683 1.80928 1.80283 1.7975 1.7933 1.79014 1.78792 1.78648 1.78566 1.7853 1.78526 1.78538 1.78569 1.78605 1.78646 1.7869 1.78736 1.78785 1.78837 1.78895 1.78958 1.79027 1.791 1.79181 1.79278 1.79399 1.7955 1.79732 1.79956 1.80268 1.80785 1.81747 1.83595 1.87026 1.92993 2.02572 2.16574 2.34713 2.54484 2.7118 2.8103 2.84646 2.85313 2.85316 2.85149 2.8475 2.84292 2.84 2.83895 2.83872 2.83868 2.83865 2.83858 2.83844 2.83822 2.83796 2.83774 2.83761 2.83754 2.83749 2.83745 2.83745 2.83737 2.83734 2.83626 2.83502 2.82368 2.80325 2.71 2.51265 2.1525 2.02273 2.00343 2.00052 2.00008 2.00001 2 2 2 2 2 2 2 2 2 2 2 2 2 2 2 2 2 2 2 2 2 2 2 2 2 2.5 2.5 2.5 2.5 2.5 2.5 2.5 2.5 2.5 2.5 2.5 2.5 2.5 2.5 2.5 2.5 2.5 2.5 2.5 2.5 2.5 2.5 2.5 2.5 2.5 2.5 2.5 2.5 2.5 2.5 2.5 2.5 2.5 2.5 2.5 2.5 2.5 2.5 2.49999 2.49998 2.49994 2.49984 2.49964 2.49924 2.49852 2.49732 2.49547 2.4928 2.48916 2.48444 2.47859 2.47159 2.46349 2.45435 2.44426 2.43331 2.42161 2.40925 2.39634 2.38294 2.36913 2.35498 2.34054 2.32586 2.31098 2.29594 2.28077 2.26549 2.25014 2.23472 2.21926 2.20377 2.18827 2.17277 2.15727 2.1418 2.12636 2.11096 2.09561 2.08032 2.06509 2.04995 2.0349 2.01995 2.00511 1.9904 1.97584 1.96145 1.94725 1.93327 1.91953 1.90609 1.89299 1.88028 1.86804 1.85633 1.84526 1.83492 1.8254 1.81683 1.80928 1.80283 1.7975 1.7933 1.79014 1.78792 1.78648 1.78566 1.7853 1.78526 1.78538 1.78569 1.78605 1.78646 1.7869 1.78736 1.78785 1.78837 1.78895 1.78958 1.79027 1.791 1.79181 1.79278 1.79399 1.7955 1.79732 1.79956 1.80268 1.80785 1.81747 1.83595 1.87026 1.92993 2.02572 2.16574 2.34713 2.54484 2.7118 2.8103 2.84646 2.85313 2.85316 2.85149 2.8475 2.84292 2.84 2.83895 2.83872 2.83868 2.83865 2.83858 2.83844 2.83822 2.83796 2.83774 2.83761 2.83754 2.83749 2.83745 2.83745 2.83737 2.83734 2.83626 2.83502 2.82368 2.80325 2.71 2.51265 2.1525 2.02273 2.00343 2.00052 2.00008 2.00001 2 2 2 2 2 2 2 2 2 2 2 2 2 2 2 2 2 2 2 2 2 2 2 2 2
				</DataArray>
				<DataArray Name="F1" type="Float32" format="ascii">
 1 1 1 1 1 1 1 1 1 1 1 1 1 1 1 1 1 1 1 1 1 1 1 1 1 1 1 1 1 1 1 1 1 1 1 1 1 1 1 1 1 1 1 1 1 1 1 1 1 1 1 1 1 1 1 1 1 1 1 1 1 1 1 1 1 1 1 1 1 1 1 1 1 1 1 1 1 1 1 1 1 1 1 1 1 1 1 1 1 1 1 1 1 1 1 1 1 1 1 1 1 1 1 1 1 1 1 1 1 1 1 1 1 1 1 1 1 1 1 1 1 1 1 1 1 1 1 1 1 1 1 1 1 1 1 1 1 1 1 1 1 1 1 1 1 1 1 1 1 1 1 1 1 1 1 1 1 1 1 1 1 1 1 1 1 1 1 1 1 1 1 1 1 1 1 1 1 1 1 1 1 1 1 1 1 1 1 1 1 1 1 1 1 1 1 1 1 1 1 1 1 1 1 1 1 1 1 1 1 1 1 1 1 1 1 1 1 1 1 1 1 1 1 1 1 1 1 1 1 1 1 1 1 1 1 1 1 1 1 1 1 1 1 1 1 1 1 1 1 1 1 1 1 1 1 1 1 1 1 1 1 1 1 1 1 1 1 1 1 1 1 1 1 1 1 1 1 1 1 1 1 1 1 1 1 1 1 1 1 1 1 1 1 1 1 1 1 1 1 1 1 1 1 1 1 1 1 1 1 1 1 1 1 1 1 1 1 1 1 1 1 1 1 1 1 1 1 1 1 1 1 1 1 1 1 1 1 1 1 1 1 1 1 1 1 1 1 1 1 1 1 1 1 1 1 1 1 1 1 1 1 1 1 1 1 1 1 1 1 1 1 1 1 1 1 1 1 1 1 1 1 1 1 1 1 1 1 1 1 1 1 1 1 1 1 1 1 1 1 1 1 1 1 1 1 1 1 1 1 1 1 1 1 1 1 1 1 1 1 1 1 1 1 1 1 1 1 1 1 1 1 1 1 1 1 1 1 1 1 1 1 1 1 1 1 1 1 1 1 1 1 1 1 1 1 1 1 1 1 1 1 1 1 1 1 1 1 1 1 1 1 1 1 1 1 1 1 1 1 1 1 1 1 1 1 1 1 1 1 1 1 1 1 1 1 1 1 1 1 1 1 1 1 1 1 1 1 1 1 1 1 1 1 1 1 1 1 1 1 1 1 1 1 1 1 1 1 1 1 1 1 1 1 1 1 1 1 1 1 1 1 1 1 1 1 1 1 1 1 1 1 1 1 1 1 1 1 1 1 1 1 1 1 1 1 1 1 1 1 1 1 1 1 1 1 1 1 1 1 1 1 1 1 1 1 1 1 1 1 1 1 1 1 1 1 1 1 1 1 1 1 1 1 1 1 1 1 1 1 1 1 1 1 1 1 1 1 1 1 1 1 1 1 1 1 1 1 1 1 1 1 1 1 1 1 1 1 1 1 1 1 1 1 1 1 1 1 1 1 1 1 1 1 1 1 1 1 1 1 1 1 1 1 1 1 1 1 1 1 1 1 1 1 1 1 1 1 1 1 1 1 1 1 1 1 1 1 1 1 1 1 1 1 1 1 1 1 1 1 1 1 1 1 1 1 1 1 1 1 1 1 1 1 1 1 1 1 1 1 1 1 1 1 1 1 1 1 1 1 1 1 1 1 1 1 1 1 1 1 1 1 1 1 1 1 1 1 1 1 1 1 1 1 1 1 1 1 1 1 1 1 1 1 1 1 1 1 1 1 1 1 1 1 1 1 1 1 1 1 1 1 1 1 1 1 1 1 1 1 1 1 1 1 1 1 1 1 1 1 1 1 1 1 1 1 1 1 1 1 1 1 1 1 1 1 1 1 1 1 1 1 1 1 1 1 1 1 1 1 1 1 1 1 1 1 1 1 1 1 1 1 1 1 1 1 1 1 1 1 1 1 1 1 1 1 1 1 1 1 1 1 1 1 1 1 1 1 1 1 1 1 1 1 1 1 1 1 1 1 1 1 1 1 1 1 1 1 1 1 1 1 1 1 1 1 1 1 1 1 1 1 1 1 1 1 1 1 1 1 1 1 1 1 1 1 1 1 1 1 1 1 1 1 1 1 1 1 1 1 1 1 1 1 1 1 1 1 1 1 1 1 1 1 1 1 1 1 1 1 1 1 1 1 1 1 1 1 1 1 1 1 1 1 1 1 1 1 1 1 1 1 1 1 1 1 1 1 1 1 1 1 1 1 1 1 1 1 1 1 1 1 1 1 1 1 1 1 1 1 1
				</DataArray>
				<DataArray Name="F2" type="Float32" format="ascii">
 0 0 0 0 0 0 0 0 0 0 0 0 0 0 0 0 0 0 0 0 0 0 0 0 0 0 0 0 0 0 0 0 0 0 0 0 0 0 0 0 0 0 0 0 0 0 0 0 0 0 0 0 0 0 0 0 0 0 0 0 0 0 0 0 0 0 0 0 0 0 0 0 0 0 0 0 0 0 0 0 0 0 0 0 0 0 0 0 0 0 0 0 0 0 0 0 0 0 0 0 0 0 0 0 0 0 0 0 0 0 0 0 0 0 0 0 0 0 0 0 0 0 0 0 0 0 0 0 0 0 0 0 0 0 0 0 0 0 0 0 0 0 0 0 0 0 0 0 0 0 0 0 0 0 0 0 0 0 0 0 0 0 0 0 0 0 0 0 0 0 0 0 0 0 0 0 0 0 0 0 0 0 0 0 0 0 0 0 0 0 0 0 0 0 0 0 0 0 0 0 0 0 0 0 0 0 0 0 0 0 0 0 0 0 0 0 0 0 0 0 0 0 0 0 0 0 0 0 0 0 0 0 0 0 0 0 0 0 0 0 0 0 0 0 0 0 0 0 0 0 0 0 0 0 0 0 0 0 0 0 0 0 0 0 0 0 0 0 0 0 0 0 0 0 0 0 0 0 0 0 0 0 0 0 0 0 0 0 0 0 0 0 0 0 0 0 0 0 0 0 0 0 0 0 0 0 0 0 0 0 0 0 0 0 0 0 0 0 0 0 0 0 0 0 0 0 0 0 0 0 0 0 0 0 0 0 0 0 0 0 0 0 0 0 0 0 0 0 0 0 0 0 0 0 0 0 0 0 0 0 0 0 0 0 0 0 0 0 0 0 0 0 0 0 0 0 0 0 0 0 0 0 0 0 0 0 0 0 0 0 0 0 0 0 0 0 0 0 0 0 0 0 0 0 0 0 0 0 0 0 0 0 0 0 0 0 0 0 0 0 0 0 0 0 0 0 0 0 0 0 0 0 0 0 0 0 0 0 0 0 0 0 0 0 0 0 0 0 0 0 0 0 0 0 0 0 0 0 0 0 0 0 0 0 0 0 0 0 0 0 0 0 0 0 0 0 0 0 0 0 0 0 0 0 0 0 0 0 0 0 0 0 0 0 0 0 0 0 0 0 0 0 0 0 0 0 0 0 0 0 0 0 0 0 0 0 0 0 0 0 0 0 0 0 0 0 0 0 0 0 0 0 0 0 0 0 0 0 0 0 0 0 0 0 0 0 0 0 0 0 0 0 0 0 0 0 0 0 0 0 0 0 0 0 0 0 0 0 0 0 0 0 0 0 0 0 0 0 0 0 0 0 0 0 0 0 0 0 0 0 0 0 0 0 0 0 0 0 0 0 0 0 0 0 0 0 0 0 0 0 0 0 0 0 0 0 0 0 0 0 0 0 0 0 0 0 0 0 0 0 0 0 0 0 0 0 0 0 0 0 0 0 0 0 0 0 0 0 0 0 0 0 0 0 0 0 0 0 0 0 0 0 0 0 0 0 0 0 0 0 0 0 0 0 0 0 0 0 0 0 0 0 0 0 0 0 0 0 0 0 0 0 0 0 0 0 0 0 0 0 0 0 0 0 0 0 0 0 0 0 0 0 0 0 0 0 0 0 0 0 0 0 0 0 0 0 0 0 0 0 0 0 0 0 0 0 0 0 0 0 0 0 0 0 0 0 0 0 0 0 0 0 0 0 0 0 0 0 0 0 0 0 0 0 0 0 0 0 0 0 0 0 0 0 0 0 0 0 0 0 0 0 0 0 0 0 0 0 0 0 0 0 0 0 0 0 0 0 0 0 0 0 0 0 0 0 0 0 0 0 0 0 0 0 0 0 0 0 0 0 0 0 0 0 0 0 0 0 0 0 0 0 0 0 0 0 0 0 0 0 0 0 0 0 0 0 0 0 0 0 0 0 0 0 0 0 0 0 0 0 0 0 0 0 0 0 0 0 0 0 0 0 0 0 0 0 0 0 0 0 0 0 0 0 0 0 0 0 0 0 0 0 0 0 0 0 0 0 0 0 0 0 0 0 0 0 0 0 0 0 0 0 0 0 0 0 0 0 0 0 0 0 0 0 0 0 0 0 0 0 0 0 0 0 0 0 0 0 0 0 0 0 0 0 0 0 0 0 0 0 0 0 0 0 0 0 0 0 0 0 0 0 0 0 0 0 0 0 0 0 0 0 0 0 0 0 0 0 0 0 0 0 0 0 0 0 0 0 0 0 0 0 0 0 0 0 0 0 0 0
				</DataArray>
				<DataArray Name="F3" type="Float32" format="ascii">