<?xml version="1.0"?>
<VTKFile type="PolyData">
	<PolyData>
		<Piece NumberOfPoints="0" NumberOfPolys="0">
			<Points>
				<DataArray type="Float32" NumberOfComponents="3" format="ascii">

				</DataArray>
			</Points>
			<Polys>
				<DataArray type="Int32" Name="connectivity" format="ascii">

				</DataArray>
				<DataArray type="Int32" Name="offsets" format="ascii">

				</DataArray>
			</Polys>
			<PointData Scalars="VolumePart">
				<DataArray Name="VolumePart" type="Float32" format="ascii">

				</DataArray>
				<DataArray Name="VxPart" type="Float32" format="ascii">

				</DataArray>
				<DataArray Name="VyPart" type="Float32" format="ascii">

				</DataArray>
			</PointData>
			<CellData Scalars="Density">
				<DataArray Name="Density" type="Float32" format="ascii">

				</DataArray>
				<DataArray Name="Energy" type="Float32" format="ascii">

				</DataArray>
				<DataArray Name="F1" type="Float32" format="ascii">

				</DataArray>
				<DataArray Name="F2" type="Float32" format="ascii">

				</DataArray>
				<DataArray Name="F3" type="Float32" format="ascii">

				</DataArray>
				<DataArray Name="Pressure" type="Float32" format="ascii">

				</DataArray>
				<DataArray Name="VelocityX" type="Float32" format="ascii">

				</DataArray>
				<DataArray Name="VelocityY" type="Float32" format="ascii">

				</DataArray>
			</CellData>
		</Piece>
	</PolyData>
</VTKFile>
